 Entering Gaussian System, Link 0=g09
 Input=compuesto2_2.gjf
 Output=compuesto2_2.log
 Initial command:
 /dataV/g09/l1.exe /tmp/Gau-7643.inp -scrdir=/tmp/
 Entering Link 1 = /dataV/g09/l1.exe PID=      7645.
  
 Copyright (c) 1988,1990,1992,1993,1995,1998,2003,2009, Gaussian, Inc.
                  All Rights Reserved.
  
 This is part of the Gaussian(R) 09 program.  It is based on
 the Gaussian(R) 03 system (copyright 2003, Gaussian, Inc.),
 the Gaussian(R) 98 system (copyright 1998, Gaussian, Inc.),
 the Gaussian(R) 94 system (copyright 1995, Gaussian, Inc.),
 the Gaussian 92(TM) system (copyright 1992, Gaussian, Inc.),
 the Gaussian 90(TM) system (copyright 1990, Gaussian, Inc.),
 the Gaussian 88(TM) system (copyright 1988, Gaussian, Inc.),
 the Gaussian 86(TM) system (copyright 1986, Carnegie Mellon
 University), and the Gaussian 82(TM) system (copyright 1983,
 Carnegie Mellon University). Gaussian is a federally registered
 trademark of Gaussian, Inc.
  
 This software contains proprietary and confidential information,
 including trade secrets, belonging to Gaussian, Inc.
  
 This software is provided under written license and may be
 used, copied, transmitted, or stored only in accord with that
 written license.
  
 The following legend is applicable only to US Government
 contracts under FAR:
  
                    RESTRICTED RIGHTS LEGEND
  
 Use, reproduction and disclosure by the US Government is
 subject to restrictions as set forth in subparagraphs (a)
 and (c) of the Commercial Computer Software - Restricted
 Rights clause in FAR 52.227-19.
  
 Gaussian, Inc.
 340 Quinnipiac St., Bldg. 40, Wallingford CT 06492
  
  
 ---------------------------------------------------------------
 Warning -- This program may not be used in any manner that
 competes with the business of Gaussian, Inc. or will provide
 assistance to any competitor of Gaussian, Inc.  The licensee
 of this program is prohibited from giving any competitor of
 Gaussian, Inc. access to this program.  By using this program,
 the user acknowledges that Gaussian, Inc. is engaged in the
 business of creating and licensing software in the field of
 computational chemistry and represents and warrants to the
 licensee that it is not a competitor of Gaussian, Inc. and that
 it will not use this program in any manner prohibited above.
 ---------------------------------------------------------------
  

 Cite this work as:
 Gaussian 09, Revision A.01,
 M. J. Frisch, G. W. Trucks, H. B. Schlegel, G. E. Scuseria, 
 M. A. Robb, J. R. Cheeseman, G. Scalmani, V. Barone, B. Mennucci, 
 G. A. Petersson, H. Nakatsuji, M. Caricato, X. Li, H. P. Hratchian, 
 A. F. Izmaylov, J. Bloino, G. Zheng, J. L. Sonnenberg, M. Hada, 
 M. Ehara, K. Toyota, R. Fukuda, J. Hasegawa, M. Ishida, T. Nakajima, 
 Y. Honda, O. Kitao, H. Nakai, T. Vreven, J. A. Montgomery, Jr., 
 J. E. Peralta, F. Ogliaro, M. Bearpark, J. J. Heyd, E. Brothers, 
 K. N. Kudin, V. N. Staroverov, R. Kobayashi, J. Normand, 
 K. Raghavachari, A. Rendell, J. C. Burant, S. S. Iyengar, J. Tomasi, 
 M. Cossi, N. Rega, J. M. Millam, M. Klene, J. E. Knox, J. B. Cross, 
 V. Bakken, C. Adamo, J. Jaramillo, R. Gomperts, R. E. Stratmann, 
 O. Yazyev, A. J. Austin, R. Cammi, C. Pomelli, J. W. Ochterski, 
 R. L. Martin, K. Morokuma, V. G. Zakrzewski, G. A. Voth, 
 P. Salvador, J. J. Dannenberg, S. Dapprich, A. D. Daniels, 
 O. Farkas, J. B. Foresman, J. V. Ortiz, J. Cioslowski, 
 and D. J. Fox, Gaussian, Inc., Wallingford CT, 2009.
 
 ******************************************
 Gaussian 09:  EM64L-G09RevA.01  8-May-2009
                 9-Oct-2022 
 ******************************************
 %nprocshared=3
 Will use up to    3 processors via shared memory.
 %mem=12GB
 %chk=compuesto2_2.chk
 ----------------------------------------------------------------------
 #p b3lyp/sto-3g gfinput iop(6/7=3) density guess=Read iop(6/50=1) iop(
 6/33=2) iop(6/42=6) pop=mk test units=(ang,deg)
 ----------------------------------------------------------------------
 1/30=1,38=1/1;
 2/12=2,17=6,18=5,40=1/2;
 3/6=3,11=2,16=1,24=10,25=1,30=1,74=-5,116=-2/1,2,3;
 4/5=1/1;
 5/5=2,38=6/2;
 6/7=3,8=2,9=2,10=2,15=8,20=1,22=-1,28=1,33=2,42=6,50=1/1,2;
 99/5=1,9=1/99;
 Leave Link    1 at Sun Oct  9 22:02:28 2022, MaxMem= 1610612736 cpu:       0.1
 (Enter /dataV/g09/l101.exe)
 -------------------
 Title Card Required
 -------------------
 Symbolic Z-matrix:
 Charge =  0 Multiplicity = 1
 O(PDBName=O1,ResName=UNL,ResNum=1) -3.717    -3.364     0.872 
 C(PDBName=C1,ResName=UNL,ResNum=1) -2.486    -1.271     0.908 
 C(PDBName=C2,ResName=UNL,ResNum=1) -1.149    -2.019     1.081 
 C(PDBName=C3,ResName=UNL,ResNum=1)  0.737    -0.836     2.554 
 C(PDBName=C4,ResName=UNL,ResNum=1)  1.488     0.455     2.549 
 C(PDBName=C5,ResName=UNL,ResNum=1)  1.703     0.792     4.054 
 C(PDBName=C6,ResName=UNL,ResNum=1)  1.915    -0.53      4.87 
 N(PDBName=N1,ResName=UNL,ResNum=1)  2.695    -1.411     4.054 
 C(PDBName=C7,ResName=UNL,ResNum=1)  1.777    -1.933     2.99 
 C(PDBName=C8,ResName=UNL,ResNum=1) -2.24      0.028     0.117 
 C(PDBName=C9,ResName=UNL,ResNum=1) -3.053     1.15      0.342 
 C(PDBName=C10,ResName=UNL,ResNum=1) -2.828     2.332    -0.379 
 C(PDBName=C11,ResName=UNL,ResNum=1) -1.791     2.392    -1.319 
 C(PDBName=C12,ResName=UNL,ResNum=1) -0.978     1.273    -1.541 
 C(PDBName=C13,ResName=UNL,ResNum=1)  0.167     1.346    -2.571 
 C(PDBName=C14,ResName=UNL,ResNum=1)  0.981     0.226    -2.803 
 C(PDBName=C15,ResName=UNL,ResNum=1)  2.016     0.295    -3.747 
 C(PDBName=C16,ResName=UNL,ResNum=1)  2.241     1.483    -4.457 
 C(PDBName=C17,ResName=UNL,ResNum=1)  1.431     2.605    -4.22 
 C(PDBName=C18,ResName=UNL,ResNum=1)  0.393     2.536    -3.275 
 C(PDBName=C19,ResName=UNL,ResNum=1) -1.202     0.087    -0.827 
 C(PDBName=C20,ResName=UNL,ResNum=1) -3.489    -2.156     0.139 
 C(PDBName=C21,ResName=UNL,ResNum=1)  0.166    -1.218     1.177 
 O(PDBName=O2,ResName=UNL,ResNum=1) -1.129    -3.276     1.144 
 O(PDBName=O3,ResName=UNL,ResNum=1)  0.555     1.439     4.634 
 H(PDBName=H1,ResName=UNL,ResNum=1) -4.077    -3.151     1.737 
 H(PDBName=H2,ResName=UNL,ResNum=1) -2.892    -1.035     1.872 
 H(PDBName=H5,ResName=UNL,ResNum=1) -0.069    -0.737     3.258 
 H(PDBName=H6,ResName=UNL,ResNum=1)  0.97      1.269     2.078 
 H(PDBName=H7,ResName=UNL,ResNum=1)  2.414     0.281     2.029 
 H(PDBName=H9,ResName=UNL,ResNum=1)  2.552     1.448     4.102 
 H(PDBName=H10,ResName=UNL,ResNum=1)  0.984    -1.022     5.061 
 H(PDBName=H11,ResName=UNL,ResNum=1)  2.385    -0.293     5.804 
 H(PDBName=H12,ResName=UNL,ResNum=1)  3.45     -0.868     3.672 
 H(PDBName=H13,ResName=UNL,ResNum=1)  1.216    -2.78      3.34 
 H(PDBName=H14,ResName=UNL,ResNum=1)  2.4      -2.224     2.165 
 H(PDBName=H15,ResName=UNL,ResNum=1) -3.842     1.106     1.06 
 H(PDBName=H16,ResName=UNL,ResNum=1) -3.448     3.189    -0.21 
 H(PDBName=H17,ResName=UNL,ResNum=1) -1.622     3.295    -1.868 
 H(PDBName=H18,ResName=UNL,ResNum=1)  0.813    -0.681    -2.261 
 H(PDBName=H19,ResName=UNL,ResNum=1)  2.639    -0.561    -3.927 
 H(PDBName=H20,ResName=UNL,ResNum=1)  3.03      1.532    -5.179 
 H(PDBName=H21,ResName=UNL,ResNum=1)  1.605     3.514    -4.76 
 H(PDBName=H22,ResName=UNL,ResNum=1) -0.227     3.391    -3.092 
 H(PDBName=H23,ResName=UNL,ResNum=1) -0.583    -0.77     -1.003 
 H(PDBName=H24,ResName=UNL,ResNum=1) -4.414    -1.629     0.025 
 H(PDBName=H24,ResName=UNL,ResNum=1) -3.091    -2.393    -0.823 
 H(PDBName=H24,ResName=UNL,ResNum=1)  0.718     1.636     5.558 
 
 NAtoms=     48 NQM=     48 NQMF=      0 NMic=      0 NMicF=      0 NTot=     48.
                    Isotopes and Nuclear Properties:
 (Nuclear quadrupole moments (NQMom) in fm**2, nuclear magnetic moments (NMagM)
  in nuclear magnetons)

  Atom         1           2           3           4           5           6           7           8           9          10
 IAtWgt=          16          12          12          12          12          12          12          14          12          12
 AtmWgt=  15.9949146  12.0000000  12.0000000  12.0000000  12.0000000  12.0000000  12.0000000  14.0030740  12.0000000  12.0000000
 NucSpn=           0           0           0           0           0           0           0           2           0           0
 AtZEff=   0.0000000   0.0000000   0.0000000   0.0000000   0.0000000   0.0000000   0.0000000   0.0000000   0.0000000   0.0000000
 NQMom=    0.0000000   0.0000000   0.0000000   0.0000000   0.0000000   0.0000000   0.0000000   2.0440000   0.0000000   0.0000000
 NMagM=    0.0000000   0.0000000   0.0000000   0.0000000   0.0000000   0.0000000   0.0000000   0.4037610   0.0000000   0.0000000

  Atom        11          12          13          14          15          16          17          18          19          20
 IAtWgt=          12          12          12          12          12          12          12          12          12          12
 AtmWgt=  12.0000000  12.0000000  12.0000000  12.0000000  12.0000000  12.0000000  12.0000000  12.0000000  12.0000000  12.0000000
 NucSpn=           0           0           0           0           0           0           0           0           0           0
 AtZEff=   0.0000000   0.0000000   0.0000000   0.0000000   0.0000000   0.0000000   0.0000000   0.0000000   0.0000000   0.0000000
 NQMom=    0.0000000   0.0000000   0.0000000   0.0000000   0.0000000   0.0000000   0.0000000   0.0000000   0.0000000   0.0000000
 NMagM=    0.0000000   0.0000000   0.0000000   0.0000000   0.0000000   0.0000000   0.0000000   0.0000000   0.0000000   0.0000000

  Atom        21          22          23          24          25          26          27          28          29          30
 IAtWgt=          12          12          12          16          16           1           1           1           1           1
 AtmWgt=  12.0000000  12.0000000  12.0000000  15.9949146  15.9949146   1.0078250   1.0078250   1.0078250   1.0078250   1.0078250
 NucSpn=           0           0           0           0           0           1           1           1           1           1
 AtZEff=   0.0000000   0.0000000   0.0000000   0.0000000   0.0000000   0.0000000   0.0000000   0.0000000   0.0000000   0.0000000
 NQMom=    0.0000000   0.0000000   0.0000000   0.0000000   0.0000000   0.0000000   0.0000000   0.0000000   0.0000000   0.0000000
 NMagM=    0.0000000   0.0000000   0.0000000   0.0000000   0.0000000   2.7928460   2.7928460   2.7928460   2.7928460   2.7928460

  Atom        31          32          33          34          35          36          37          38          39          40
 IAtWgt=           1           1           1           1           1           1           1           1           1           1
 AtmWgt=   1.0078250   1.0078250   1.0078250   1.0078250   1.0078250   1.0078250   1.0078250   1.0078250   1.0078250   1.0078250
 NucSpn=           1           1           1           1           1           1           1           1           1           1
 AtZEff=   0.0000000   0.0000000   0.0000000   0.0000000   0.0000000   0.0000000   0.0000000   0.0000000   0.0000000   0.0000000
 NQMom=    0.0000000   0.0000000   0.0000000   0.0000000   0.0000000   0.0000000   0.0000000   0.0000000   0.0000000   0.0000000
 NMagM=    2.7928460   2.7928460   2.7928460   2.7928460   2.7928460   2.7928460   2.7928460   2.7928460   2.7928460   2.7928460

  Atom        41          42          43          44          45          46          47          48
 IAtWgt=           1           1           1           1           1           1           1           1
 AtmWgt=   1.0078250   1.0078250   1.0078250   1.0078250   1.0078250   1.0078250   1.0078250   1.0078250
 NucSpn=           1           1           1           1           1           1           1           1
 AtZEff=   0.0000000   0.0000000   0.0000000   0.0000000   0.0000000   0.0000000   0.0000000   0.0000000
 NQMom=    0.0000000   0.0000000   0.0000000   0.0000000   0.0000000   0.0000000   0.0000000   0.0000000
 NMagM=    2.7928460   2.7928460   2.7928460   2.7928460   2.7928460   2.7928460   2.7928460   2.7928460
 Leave Link  101 at Sun Oct  9 22:02:29 2022, MaxMem= 1610612736 cpu:       0.2
 (Enter /dataV/g09/l202.exe)
                          Input orientation:                          
 ---------------------------------------------------------------------
 Center     Atomic      Atomic             Coordinates (Angstroms)
 Number     Number       Type             X           Y           Z
 ---------------------------------------------------------------------
      1          8           0       -3.717000   -3.364000    0.872000
      2          6           0       -2.486000   -1.271000    0.908000
      3          6           0       -1.149000   -2.019000    1.081000
      4          6           0        0.737000   -0.836000    2.554000
      5          6           0        1.488000    0.455000    2.549000
      6          6           0        1.703000    0.792000    4.054000
      7          6           0        1.915000   -0.530000    4.870000
      8          7           0        2.695000   -1.411000    4.054000
      9          6           0        1.777000   -1.933000    2.990000
     10          6           0       -2.240000    0.028000    0.117000
     11          6           0       -3.053000    1.150000    0.342000
     12          6           0       -2.828000    2.332000   -0.379000
     13          6           0       -1.791000    2.392000   -1.319000
     14          6           0       -0.978000    1.273000   -1.541000
     15          6           0        0.167000    1.346000   -2.571000
     16          6           0        0.981000    0.226000   -2.803000
     17          6           0        2.016000    0.295000   -3.747000
     18          6           0        2.241000    1.483000   -4.457000
     19          6           0        1.431000    2.605000   -4.220000
     20          6           0        0.393000    2.536000   -3.275000
     21          6           0       -1.202000    0.087000   -0.827000
     22          6           0       -3.489000   -2.156000    0.139000
     23          6           0        0.166000   -1.218000    1.177000
     24          8           0       -1.129000   -3.276000    1.144000
     25          8           0        0.555000    1.439000    4.634000
     26          1           0       -4.077000   -3.151000    1.737000
     27          1           0       -2.892000   -1.035000    1.872000
     28          1           0       -0.069000   -0.737000    3.258000
     29          1           0        0.970000    1.269000    2.078000
     30          1           0        2.414000    0.281000    2.029000
     31          1           0        2.552000    1.448000    4.102000
     32          1           0        0.984000   -1.022000    5.061000
     33          1           0        2.385000   -0.293000    5.804000
     34          1           0        3.450000   -0.868000    3.672000
     35          1           0        1.216000   -2.780000    3.340000
     36          1           0        2.400000   -2.224000    2.165000
     37          1           0       -3.842000    1.106000    1.060000
     38          1           0       -3.448000    3.189000   -0.210000
     39          1           0       -1.622000    3.295000   -1.868000
     40          1           0        0.813000   -0.681000   -2.261000
     41          1           0        2.639000   -0.561000   -3.927000
     42          1           0        3.030000    1.532000   -5.179000
     43          1           0        1.605000    3.514000   -4.760000
     44          1           0       -0.227000    3.391000   -3.092000
     45          1           0       -0.583000   -0.770000   -1.003000
     46          1           0       -4.414000   -1.629000    0.025000
     47          1           0       -3.091000   -2.393000   -0.823000
     48          1           0        0.718000    1.636000    5.558000
 ---------------------------------------------------------------------
                    Distance matrix (angstroms):
                    1          2          3          4          5
     1  O    0.000000
     2  C    2.428437   0.000000
     3  C    2.906429   1.541753   0.000000
     4  C    5.390550   3.645034   2.669497   0.000000
     5  C    6.670016   4.632994   3.902495   1.493555   0.000000
     6  C    7.534843   5.630365   4.987420   2.415272   1.557183
     7  C    7.465587   5.967858   5.095266   2.616329   2.557263
     8  N    7.419776   6.062976   4.897421   2.532664   2.683995
     9  C    6.059515   4.790213   3.494732   1.573247   2.445515
    10  C    3.775873   1.540649   2.511929   3.943094   4.471570
    11  C    4.593255   2.550115   3.770132   4.816767   5.096524
    12  C    5.899130   3.841216   4.886905   5.598923   5.542939
    13  C    6.453022   4.342824   5.062518   5.640115   5.428189
    14  C    5.901395   3.839740   4.212053   4.915092   4.845449
    15  C    7.008838   5.098092   5.137332   5.599254   5.362212
    16  C    6.961676   5.294584   4.966123   5.466702   5.380836
    17  C    8.221358   6.662536   6.219438   6.528216   6.320127
    18  C    9.348231   7.662393   7.377367   7.536173   7.120943
    19  C    9.383993   7.527460   7.492555   7.629495   7.102472
    20  C    8.300585   6.346604   6.488492   6.742845   6.280809
    21  C    4.595784   2.550107   2.842272   4.005348   4.332309
    22  C    1.431271   1.542918   2.526209   5.043184   6.115223
    23  C    4.447025   2.666135   1.542738   1.538861   2.535547
    24  O    2.603742   2.432523   1.258737   3.379890   4.768970
    25  O    7.447915   5.520404   5.242632   3.087904   2.487161
    26  H    0.960830   2.598638   3.207015   5.403824   6.680704
    27  H    2.665495   1.072300   2.152205   3.697887   4.675770
    28  H    5.089404   3.413143   2.747590   1.074734   2.085136
    29  H    6.699783   4.445721   4.036721   2.170689   1.073667
    30  H    7.225914   5.260736   4.345535   2.082221   1.076175
    31  H    8.537482   6.555611   5.902875   3.302603   2.128369
    32  H    6.718042   5.417593   4.624294   2.525996   2.957311
    33  H    8.425560   6.975238   6.146134   3.684190   3.458199
    34  H    8.089246   6.560351   5.402674   2.934505   2.619332
    35  H    5.546762   4.679371   3.357890   2.150901   3.341390
    36  H    6.355245   5.134321   3.716515   2.200780   2.855913
    37  H    4.475698   2.740797   4.125326   5.193327   5.572237
    38  H    6.647172   4.697549   5.837409   6.430750   6.280998
    39  H    7.499260   5.413042   6.095812   6.494931   6.103080
    40  H    6.126588   4.612381   4.099836   4.818094   4.988208
    41  H    8.443100   7.081451   6.446299   6.759925   6.655496
    42  H   10.300846   8.679553   8.322334   8.406222   7.953595
    43  H   10.360984   8.471052   8.503875   8.553977   7.924181
    44  H    8.574580   6.545023   6.894354   7.118577   6.586517
    45  H    4.479555   2.743051   2.494677   3.794602   4.290265
    46  H    2.052667   2.150590   3.453616   5.792883   6.748869
    47  H    2.051278   2.149714   2.745261   5.336849   6.359932
    48  H    8.162587   6.351281   6.073569   3.890393   3.322912
                    6          7          8          9         10
     6  C    0.000000
     7  C    1.567955   0.000000
     8  N    2.416045   1.431928   0.000000
     9  C    2.926294   2.349862   1.499101   0.000000
    10  C    5.624137   6.337697   6.474945   5.313750   0.000000
    11  C    6.043728   6.928651   7.305968   6.312344   1.403737
    12  C    6.523270   7.631454   8.010310   7.123652   2.429028
    13  C    6.605843   7.783074   7.965936   7.071332   2.802176
    14  C    6.222793   7.260935   7.211020   6.196646   2.427269
    15  C    6.823257   7.870410   7.608052   6.653470   3.841369
    16  C    6.918099   7.766519   7.255068   6.233277   4.352062
    17  C    7.823080   8.656992   8.014180   7.099878   5.754591
    18  C    8.555936   9.547323   9.001026   8.206227   6.566419
    19  C    8.474670   9.627595   9.283589   8.526269   6.239130
    20  C    7.646691   8.835036   8.636681   7.819056   4.972768
    21  C    5.723654   6.523204   6.422988   5.246364   1.404301
    22  C    7.139663   7.364065   7.356909   5.992386   2.516017
    23  C    3.831396   4.143742   3.835390   2.528540   2.909459
    24  O    5.747778   5.539813   5.154542   3.695430   3.633933
    25  O    1.439761   2.404632   3.610886   3.945428   5.496020
    26  H    7.370491   7.251855   7.365872   6.109243   4.013105
    27  H    5.404912   5.687730   6.009748   4.884249   2.152928
    28  H    2.472133   2.564693   2.954249   2.215842   3.894143
    29  H    2.160878   3.453214   3.750013   3.425755   3.961023
    30  H    2.206188   2.996332   2.653761   2.496214   5.037804
    31  H    1.073984   2.215418   2.862976   3.642572   6.392174
    32  H    2.195816   1.070190   2.023089   2.397459   5.994982
    33  H    2.169066   1.072112   2.099649   3.313285   7.337277
    34  H    2.439986   1.976278   1.005385   2.097207   6.768821
    35  H    3.675071   2.809271   2.138083   1.074537   5.496956
    36  H    3.626346   3.228295   2.077574   1.073981   5.549361
    37  H    6.309489   7.094762   7.617854   6.673349   2.148892
    38  H    7.103528   8.270377   8.779416   7.985957   3.399723
    39  H    7.238143   8.517138   8.709363   7.904767   3.872394
    40  H    6.545308   7.217227   6.629785   5.483594   3.934256
    41  H    8.148808   8.826797   8.026331   7.104246   6.364393
    42  H    9.357180  10.318792   9.696482   8.961517   7.621190
    43  H    9.225263  10.449255  10.155310   9.474275   7.121892
    44  H    7.845063   9.129942   9.091898   8.327768   5.065532
    45  H    5.765318   6.386684   6.060480   4.781863   2.153335
    46  H    7.714387   8.045997   8.174243   6.871108   2.735030
    47  H    7.543990   7.806475   7.630678   6.200645   2.732955
    48  H    1.986096   2.568601   3.931253   4.522595   6.398430
                   11         12         13         14         15
    11  C    0.000000
    12  C    1.402708   0.000000
    13  C    2.427783   1.400917   0.000000
    14  C    2.804718   2.427803   1.400862   0.000000
    15  C    4.346537   3.840193   2.548604   1.541835   0.000000
    16  C    5.197880   4.981917   3.818088   2.554708   1.403859
    17  C    6.568539   6.241565   4.978538   3.845381   2.430304
    18  C    7.153162   6.560918   5.189446   4.348461   2.806642
    19  C    6.560116   5.741680   4.340790   3.841165   2.429399
    20  C    5.184458   4.336274   2.935392   2.545892   1.400997
    21  C    2.433666   2.807954   2.429405   1.402344   2.549662
    22  C    3.340799   4.565894   5.068853   4.570072   5.742338
    23  C    4.082476   4.897721   4.805410   3.860226   4.541101
    24  O    4.892285   6.054403   6.215371   5.284451   6.069903
    25  O    5.614486   6.113289   6.469168   6.364611   7.216039
    26  H    4.636076   6.008390   6.729768   6.318296   7.536140
    27  H    2.672274   4.050653   4.810303   4.542998   5.896346
    28  H    4.579092   5.500783   5.805588   5.281740   6.194500
    29  H    4.383194   4.646679   4.519276   4.109973   4.718468
    30  H    5.786987   6.122388   5.774725   5.023408   5.229076
    31  H    6.755918   7.057281   7.009995   6.658451   7.087140
    32  H    6.579051   7.441388   7.749866   7.259674   8.032580
    33  H    7.841399   8.502675   8.682473   8.228679   8.817396
    34  H    7.579593   8.127969   7.937617   7.167038   7.392898
    35  H    6.531253   7.504495   7.582738   6.713018   7.284518
    36  H    6.666514   7.386546   7.142142   6.113455   6.337262
    37  H    1.067699   2.145226   3.394118   3.872413   5.414226
    38  H    2.149011   1.071172   2.147263   3.397575   4.694592
    39  H    3.396010   2.144511   1.070220   2.147126   2.737395
    40  H    5.007407   5.086942   4.136606   2.746670   2.149917
    41  H    7.317838   7.130627   5.928471   4.705235   3.403846
    42  H    8.223762   7.615521   6.235482   5.419058   3.877245
    43  H    7.301771   6.343640   4.963082   4.696374   3.399969
    44  H    4.980031   3.904747   2.566637   2.730481   2.146789
    45  H    3.405338   3.879666   3.399612   2.149260   2.738354
    46  H    3.110571   4.285806   4.985469   4.762358   6.047760
    47  H    3.729815   4.753097   4.983196   4.291835   5.258345
    48  H    6.454711   6.950288   7.359331   7.307803   8.152812
                   16         17         18         19         20
    16  C    0.000000
    17  C    1.402541   0.000000
    18  C    2.429684   1.402166   0.000000
    19  C    2.805357   2.429414   1.403978   0.000000
    20  C    2.429944   2.806955   2.433318   1.405429   0.000000
    21  C    2.947776   4.350309   5.194224   4.978500   3.812392
    22  C    5.857490   7.170315   8.197465   8.116305   6.981417
    23  C    4.311585   5.473339   6.583539   6.733733   5.827894
    24  O    5.682861   6.823851   8.085554   8.361355   7.458109
    25  O    7.547305   8.583963   9.246124   8.973308   7.986359
    26  H    7.589407   8.892346   9.987828   9.947635   8.800171
    27  H    6.200474   7.578293   8.529024   8.309657   7.073533
    28  H    6.226202   7.381211   8.353785   8.327031   7.321616
    29  H    4.991205   5.997784   6.660890   6.454628   5.531078
    30  H    5.040311   5.789713   6.598707   6.739233   6.107527
    31  H    7.186122   7.951321   8.564720   8.476495   7.763063
    32  H    7.962412   8.965510   9.922066   9.974563   9.082816
    33  H    8.736191   9.576195  10.414559  10.478029   9.715943
    34  H    7.015584   7.645292   8.548071   8.855606   8.318249
    35  H    6.843078   7.766672   8.945222   9.284290   8.526160
    36  H    5.718136   6.437745   7.590653   8.063897   7.501950
    37  H    6.241674   7.621098   8.220846   7.611171   6.226745
    38  H    5.926134   7.123265   7.301518   6.342381   4.957208
    39  H    4.131416   5.075991   4.990895   3.915203   2.572150
    40  H    1.069877   2.146621   3.397719   3.875229   3.399071
    41  H    2.152141   1.073902   2.148776   3.401275   3.880854
    42  H    3.398443   2.146856   1.070610   2.151235   3.403968
    43  H    3.876876   3.399566   2.149713   1.071521   2.151895
    44  H    3.400001   3.878826   3.405101   2.153867   1.071874
    45  H    2.584204   3.926648   4.998110   5.078967   4.128462
    46  H    6.367467   7.699004   8.605922   8.373220   7.165506
    47  H    5.230750   6.469665   7.527254   7.547721   6.515029
    48  H    8.483136   9.490317  10.131296   9.851732   8.884679
                   21         22         23         24         25
    21  C    0.000000
    22  C    3.345829   0.000000
    23  C    2.755080   3.913606   0.000000
    24  O    3.898710   2.798933   2.431764   0.000000
    25  O    5.893851   7.034414   4.377422   6.103047   0.000000
    26  H    5.032332   1.972149   4.696077   3.009647   7.135554
    27  H    3.376327   2.148567   3.141318   2.942828   5.062720
    28  H    4.318552   4.841293   2.148755   3.469743   2.649099
    29  H    3.814936   5.947523   2.764667   5.092660   2.595045
    30  H    4.611922   6.660066   2.833092   5.097874   3.403362
    31  H    6.343491   8.073900   4.621274   6.679499   2.066667
    32  H    6.377854   6.746834   3.974040   4.988805   2.534342
    33  H    7.548585   8.370596   5.214280   6.554547   2.778061
    34  H    6.541722   7.892449   4.139104   5.758167   3.824751
    35  H    5.606273   5.724753   2.867213   3.250763   4.462210
    36  H    5.221799   6.228131   2.641768   3.821385   4.787228
    37  H    3.401284   3.407858   4.634515   5.154546   5.676088
    38  H    3.879125   5.356539   5.865698   7.000522   6.523101
    39  H    3.398727   6.101405   5.730283   7.245221   7.103525
    40  H    2.589673   5.142259   3.539325   4.701001   7.218171
    41  H    4.978271   7.525209   5.709483   6.876343   9.035141
    42  H    6.240012   9.185849   7.494247   8.966297  10.120733
    43  H    5.923856   9.060791   7.727258   9.404046   9.677570
    44  H    4.122774   7.200640   6.294576   7.950232   8.007053
    45  H    1.071721   3.416138   2.348213   3.344811   6.160397
    46  H    3.739987   1.070677   4.740509   3.841353   7.439521
    47  H    3.117489   1.067716   3.998584   2.915171   7.599762
    48  H    6.845000   7.838602   5.257678   6.857299   0.958725
                   26         27         28         29         30
    26  H    0.000000
    27  H    2.428972   0.000000
    28  H    4.919848   3.158976   0.000000
    29  H    6.717506   4.501766   2.548717   0.000000
    30  H    7.348263   5.469016   2.951619   1.750337   0.000000
    31  H    8.407596   6.385556   3.515139   2.575139   2.382910
    32  H    6.418359   5.019289   2.107331   3.761272   3.596628
    33  H    8.152674   6.622531   3.563898   4.280788   3.818500
    34  H    8.100126   6.594608   3.545690   3.641154   2.256756
    35  H    5.542842   4.698480   2.414912   4.248242   3.538876
    36  H    6.556984   5.431835   3.082496   3.775383   2.508728
    37  H    4.316897   2.479057   4.739555   4.921203   6.384130
    38  H    6.661985   4.741944   6.233630   5.332923   6.916114
    39  H    7.782928   5.860836   6.704082   5.137515   6.368681
    40  H    6.782109   5.561837   5.589313   4.759629   4.678968
    41  H    9.159348   8.027767   7.680395   6.495728   6.019429
    42  H   10.966813   9.559089   9.270120   7.548299   7.341643
    43  H   10.904969   9.214111   9.228304   7.225060   7.562889
    44  H    8.996639   7.164705   7.575477   5.715295   6.547642
    45  H    5.038333   3.696935   4.292017   4.007729   4.390858
    46  H    2.315383   2.465913   5.488805   6.449858   7.367883
    47  H    2.846113   3.024366   5.341290   6.190135   6.751978
    48  H    7.778653   5.809728   3.397131   3.508360   4.143221
                   31         32         33         34         35
    31  H    0.000000
    32  H    3.078832   0.000000
    33  H    2.440445   1.745363   0.000000
    34  H    2.520944   2.834465   2.451586   0.000000
    35  H    4.499058   2.471079   3.690938   2.959176   0.000000
    36  H    4.154354   3.440447   4.119625   2.283043   1.758299
    37  H    7.089003   6.620171   7.952249   7.993277   6.773681
    38  H    7.591075   8.072087   9.072839   8.894469   8.365665
    39  H    7.514957   8.569642   9.369599   8.587628   8.490179
    40  H    6.931416   7.331931   8.225932   6.495323   5.994949
    41  H    8.276986   9.150721   9.738003   7.648318   7.730341
    42  H    9.293681  10.750192  11.152262   9.180229   9.718915
    43  H    9.148782  10.835727  11.256098   9.680112  10.265269
    44  H    7.953095   9.349465   9.976634   8.798358   9.029624
    45  H    6.388175   6.268260   7.441223   6.174975   5.112548
    46  H    8.637998   7.407304   9.022646   8.701852   6.634073
    47  H    8.417384   7.287436   8.849503   8.081790   6.002548
    48  H    2.349220   2.717118   2.561337   4.158225   4.966748
                   36         37         38         39         40
    36  H    0.000000
    37  H    7.160481   0.000000
    38  H    8.315065   2.471240   0.000000
    39  H    7.931011   4.277067   2.468699   0.000000
    40  H    4.948625   5.990946   6.110616   4.678915   0.000000
    41  H    6.319427   8.345802   8.057925   6.104452   2.474719
    42  H    8.272773   9.291447   8.330732   5.975951   4.281026
    43  H    9.028416   8.327105   6.807418   4.338796   4.946745
    44  H    8.128063   5.960583   4.326843   1.858337   4.284080
    45  H    4.587878   4.289106   4.950834   4.283920   1.881303
    46  H    7.166884   2.979704   4.919503   5.968625   5.783254
    47  H    6.253622   4.043846   5.626895   5.966853   4.498889
    48  H    5.407511   6.427014   7.282664   7.960738   8.155628
                   41         42         43         44         45
    41  H    0.000000
    42  H    2.470027   0.000000
    43  H    4.285869   2.476794   0.000000
    44  H    4.952725   4.291794   2.480640   0.000000
    45  H    4.356001   5.982637   6.103691   4.669537   0.000000
    46  H    8.154982   9.616999   9.250678   7.242034   4.058476
    47  H    6.769338   8.476261   8.511465   6.841455   2.992757
    48  H    9.923824  10.983594  10.524960   8.876686   7.108316
                   46         47         48
    46  H    0.000000
    47  H    1.747321   0.000000
    48  H    8.222636   8.453312   0.000000
 Stoichiometry    C21H23NO3
 Framework group  C1[X(C21H23NO3)]
 Deg. of freedom   138
 Full point group                 C1      NOp   1
 Largest Abelian subgroup         C1      NOp   1
 Largest concise Abelian subgroup C1      NOp   1
                         Standard orientation:                         
 ---------------------------------------------------------------------
 Center     Atomic      Atomic             Coordinates (Angstroms)
 Number     Number       Type             X           Y           Z
 ---------------------------------------------------------------------
      1          8           0       -1.447044    4.454003   -1.252441
      2          6           0       -0.793747    2.503473    0.038273
      3          6           0       -1.286423    1.557448   -1.074970
      4          6           0       -2.329978   -0.782091   -0.324127
      5          6           0       -1.901229   -1.974829    0.465973
      6          6           0       -3.195635   -2.458302    1.184016
      7          6           0       -4.438605   -2.216856    0.259239
      8          7           0       -4.029060   -2.499965   -1.083348
      9          6           0       -3.178144   -1.346676   -1.522860
     10          6           0        0.395586    1.849906    0.767611
     11          6           0        0.624982    2.129284    2.124004
     12          6           0        1.708299    1.533654    2.786755
     13          6           0        2.556669    0.658941    2.095586
     14          6           0        2.325543    0.378076    0.742770
     15          6           0        3.257306   -0.591196   -0.011936
     16          6           0        3.035106   -0.871555   -1.369450
     17          6           0        3.890514   -1.747562   -2.053564
     18          6           0        4.965706   -2.346679   -1.381933
     19          6           0        5.183762   -2.071275   -0.022610
     20          6           0        4.327566   -1.192629    0.663057
     21          6           0        1.247283    0.975083    0.073811
     22          6           0       -0.343405    3.846656   -0.572995
     23          6           0       -1.153858    0.031259   -0.892720
     24          8           0       -1.794384    2.026230   -2.126938
     25          8           0       -3.450661   -1.722736    2.395139
     26          1           0       -2.160775    4.610500   -0.628509
     27          1           0       -1.589426    2.682807    0.734379
     28          1           0       -2.912612   -0.156674    0.327367
     29          1           0       -1.146518   -1.772608    1.202369
     30          1           0       -1.522807   -2.699380   -0.234009
     31          1           0       -3.047493   -3.496732    1.414574
     32          1           0       -4.747302   -1.192435    0.283175
     33          1           0       -5.248226   -2.835442    0.592842
     34          1           0       -3.515475   -3.363929   -1.058990
     35          1           0       -3.779637   -0.537368   -1.894150
     36          1           0       -2.542243   -1.717023   -2.305106
     37          1           0       -0.022525    2.793872    2.652246
     38          1           0        1.886135    1.746444    3.821407
     39          1           0        3.382725    0.206359    2.603691
     40          1           0        2.214106   -0.417597   -1.883764
     41          1           0        3.723153   -1.962357   -3.092370
     42          1           0        5.618728   -3.012819   -1.907315
     43          1           0        6.003319   -2.531708    0.491671
     44          1           0        4.491626   -0.980492    1.700841
     45          1           0        1.076027    0.763926   -0.962852
     46          1           0       -0.004471    4.496847    0.207213
     47          1           0        0.450437    3.674821   -1.266036
     48          1           0       -4.250394   -2.044011    2.815097
 ---------------------------------------------------------------------
 Rotational constants (GHZ):      0.2348971      0.1432200      0.1165253
 Leave Link  202 at Sun Oct  9 22:02:29 2022, MaxMem= 1610612736 cpu:       0.2
 (Enter /dataV/g09/l301.exe)
 Standard basis: STO-3G (5D, 7F)
 Ernie: Thresh=  0.10000D-02 Tol=  0.10000D-05 Strict=F.
 AO basis set in the form of general basis input (Overlap normalization):
      1 0
 S   3 1.00       0.000000000000
      0.1307093214D+03  0.1543289673D+00
      0.2380886605D+02  0.5353281423D+00
      0.6443608313D+01  0.4446345422D+00
 SP   3 1.00       0.000000000000
      0.5033151319D+01 -0.9996722919D-01  0.1559162750D+00
      0.1169596125D+01  0.3995128261D+00  0.6076837186D+00
      0.3803889600D+00  0.7001154689D+00  0.3919573931D+00
 ****
      2 0
 S   3 1.00       0.000000000000
      0.7161683735D+02  0.1543289673D+00
      0.1304509632D+02  0.5353281423D+00
      0.3530512160D+01  0.4446345422D+00
 SP   3 1.00       0.000000000000
      0.2941249355D+01 -0.9996722919D-01  0.1559162750D+00
      0.6834830964D+00  0.3995128261D+00  0.6076837186D+00
      0.2222899159D+00  0.7001154689D+00  0.3919573931D+00
 ****
      3 0
 S   3 1.00       0.000000000000
      0.7161683735D+02  0.1543289673D+00
      0.1304509632D+02  0.5353281423D+00
      0.3530512160D+01  0.4446345422D+00
 SP   3 1.00       0.000000000000
      0.2941249355D+01 -0.9996722919D-01  0.1559162750D+00
      0.6834830964D+00  0.3995128261D+00  0.6076837186D+00
      0.2222899159D+00  0.7001154689D+00  0.3919573931D+00
 ****
      4 0
 S   3 1.00       0.000000000000
      0.7161683735D+02  0.1543289673D+00
      0.1304509632D+02  0.5353281423D+00
      0.3530512160D+01  0.4446345422D+00
 SP   3 1.00       0.000000000000
      0.2941249355D+01 -0.9996722919D-01  0.1559162750D+00
      0.6834830964D+00  0.3995128261D+00  0.6076837186D+00
      0.2222899159D+00  0.7001154689D+00  0.3919573931D+00
 ****
      5 0
 S   3 1.00       0.000000000000
      0.7161683735D+02  0.1543289673D+00
      0.1304509632D+02  0.5353281423D+00
      0.3530512160D+01  0.4446345422D+00
 SP   3 1.00       0.000000000000
      0.2941249355D+01 -0.9996722919D-01  0.1559162750D+00
      0.6834830964D+00  0.3995128261D+00  0.6076837186D+00
      0.2222899159D+00  0.7001154689D+00  0.3919573931D+00
 ****
      6 0
 S   3 1.00       0.000000000000
      0.7161683735D+02  0.1543289673D+00
      0.1304509632D+02  0.5353281423D+00
      0.3530512160D+01  0.4446345422D+00
 SP   3 1.00       0.000000000000
      0.2941249355D+01 -0.9996722919D-01  0.1559162750D+00
      0.6834830964D+00  0.3995128261D+00  0.6076837186D+00
      0.2222899159D+00  0.7001154689D+00  0.3919573931D+00
 ****
      7 0
 S   3 1.00       0.000000000000
      0.7161683735D+02  0.1543289673D+00
      0.1304509632D+02  0.5353281423D+00
      0.3530512160D+01  0.4446345422D+00
 SP   3 1.00       0.000000000000
      0.2941249355D+01 -0.9996722919D-01  0.1559162750D+00
      0.6834830964D+00  0.3995128261D+00  0.6076837186D+00
      0.2222899159D+00  0.7001154689D+00  0.3919573931D+00
 ****
      8 0
 S   3 1.00       0.000000000000
      0.9910616896D+02  0.1543289673D+00
      0.1805231239D+02  0.5353281423D+00
      0.4885660238D+01  0.4446345422D+00
 SP   3 1.00       0.000000000000
      0.3780455879D+01 -0.9996722919D-01  0.1559162750D+00
      0.8784966449D+00  0.3995128261D+00  0.6076837186D+00
      0.2857143744D+00  0.7001154689D+00  0.3919573931D+00
 ****
      9 0
 S   3 1.00       0.000000000000
      0.7161683735D+02  0.1543289673D+00
      0.1304509632D+02  0.5353281423D+00
      0.3530512160D+01  0.4446345422D+00
 SP   3 1.00       0.000000000000
      0.2941249355D+01 -0.9996722919D-01  0.1559162750D+00
      0.6834830964D+00  0.3995128261D+00  0.6076837186D+00
      0.2222899159D+00  0.7001154689D+00  0.3919573931D+00
 ****
     10 0
 S   3 1.00       0.000000000000
      0.7161683735D+02  0.1543289673D+00
      0.1304509632D+02  0.5353281423D+00
      0.3530512160D+01  0.4446345422D+00
 SP   3 1.00       0.000000000000
      0.2941249355D+01 -0.9996722919D-01  0.1559162750D+00
      0.6834830964D+00  0.3995128261D+00  0.6076837186D+00
      0.2222899159D+00  0.7001154689D+00  0.3919573931D+00
 ****
     11 0
 S   3 1.00       0.000000000000
      0.7161683735D+02  0.1543289673D+00
      0.1304509632D+02  0.5353281423D+00
      0.3530512160D+01  0.4446345422D+00
 SP   3 1.00       0.000000000000
      0.2941249355D+01 -0.9996722919D-01  0.1559162750D+00
      0.6834830964D+00  0.3995128261D+00  0.6076837186D+00
      0.2222899159D+00  0.7001154689D+00  0.3919573931D+00
 ****
     12 0
 S   3 1.00       0.000000000000
      0.7161683735D+02  0.1543289673D+00
      0.1304509632D+02  0.5353281423D+00
      0.3530512160D+01  0.4446345422D+00
 SP   3 1.00       0.000000000000
      0.2941249355D+01 -0.9996722919D-01  0.1559162750D+00
      0.6834830964D+00  0.3995128261D+00  0.6076837186D+00
      0.2222899159D+00  0.7001154689D+00  0.3919573931D+00
 ****
     13 0
 S   3 1.00       0.000000000000
      0.7161683735D+02  0.1543289673D+00
      0.1304509632D+02  0.5353281423D+00
      0.3530512160D+01  0.4446345422D+00
 SP   3 1.00       0.000000000000
      0.2941249355D+01 -0.9996722919D-01  0.1559162750D+00
      0.6834830964D+00  0.3995128261D+00  0.6076837186D+00
      0.2222899159D+00  0.7001154689D+00  0.3919573931D+00
 ****
     14 0
 S   3 1.00       0.000000000000
      0.7161683735D+02  0.1543289673D+00
      0.1304509632D+02  0.5353281423D+00
      0.3530512160D+01  0.4446345422D+00
 SP   3 1.00       0.000000000000
      0.2941249355D+01 -0.9996722919D-01  0.1559162750D+00
      0.6834830964D+00  0.3995128261D+00  0.6076837186D+00
      0.2222899159D+00  0.7001154689D+00  0.3919573931D+00
 ****
     15 0
 S   3 1.00       0.000000000000
      0.7161683735D+02  0.1543289673D+00
      0.1304509632D+02  0.5353281423D+00
      0.3530512160D+01  0.4446345422D+00
 SP   3 1.00       0.000000000000
      0.2941249355D+01 -0.9996722919D-01  0.1559162750D+00
      0.6834830964D+00  0.3995128261D+00  0.6076837186D+00
      0.2222899159D+00  0.7001154689D+00  0.3919573931D+00
 ****
     16 0
 S   3 1.00       0.000000000000
      0.7161683735D+02  0.1543289673D+00
      0.1304509632D+02  0.5353281423D+00
      0.3530512160D+01  0.4446345422D+00
 SP   3 1.00       0.000000000000
      0.2941249355D+01 -0.9996722919D-01  0.1559162750D+00
      0.6834830964D+00  0.3995128261D+00  0.6076837186D+00
      0.2222899159D+00  0.7001154689D+00  0.3919573931D+00
 ****
     17 0
 S   3 1.00       0.000000000000
      0.7161683735D+02  0.1543289673D+00
      0.1304509632D+02  0.5353281423D+00
      0.3530512160D+01  0.4446345422D+00
 SP   3 1.00       0.000000000000
      0.2941249355D+01 -0.9996722919D-01  0.1559162750D+00
      0.6834830964D+00  0.3995128261D+00  0.6076837186D+00
      0.2222899159D+00  0.7001154689D+00  0.3919573931D+00
 ****
     18 0
 S   3 1.00       0.000000000000
      0.7161683735D+02  0.1543289673D+00
      0.1304509632D+02  0.5353281423D+00
      0.3530512160D+01  0.4446345422D+00
 SP   3 1.00       0.000000000000
      0.2941249355D+01 -0.9996722919D-01  0.1559162750D+00
      0.6834830964D+00  0.3995128261D+00  0.6076837186D+00
      0.2222899159D+00  0.7001154689D+00  0.3919573931D+00
 ****
     19 0
 S   3 1.00       0.000000000000
      0.7161683735D+02  0.1543289673D+00
      0.1304509632D+02  0.5353281423D+00
      0.3530512160D+01  0.4446345422D+00
 SP   3 1.00       0.000000000000
      0.2941249355D+01 -0.9996722919D-01  0.1559162750D+00
      0.6834830964D+00  0.3995128261D+00  0.6076837186D+00
      0.2222899159D+00  0.7001154689D+00  0.3919573931D+00
 ****
     20 0
 S   3 1.00       0.000000000000
      0.7161683735D+02  0.1543289673D+00
      0.1304509632D+02  0.5353281423D+00
      0.3530512160D+01  0.4446345422D+00
 SP   3 1.00       0.000000000000
      0.2941249355D+01 -0.9996722919D-01  0.1559162750D+00
      0.6834830964D+00  0.3995128261D+00  0.6076837186D+00
      0.2222899159D+00  0.7001154689D+00  0.3919573931D+00
 ****
     21 0
 S   3 1.00       0.000000000000
      0.7161683735D+02  0.1543289673D+00
      0.1304509632D+02  0.5353281423D+00
      0.3530512160D+01  0.4446345422D+00
 SP   3 1.00       0.000000000000
      0.2941249355D+01 -0.9996722919D-01  0.1559162750D+00
      0.6834830964D+00  0.3995128261D+00  0.6076837186D+00
      0.2222899159D+00  0.7001154689D+00  0.3919573931D+00
 ****
     22 0
 S   3 1.00       0.000000000000
      0.7161683735D+02  0.1543289673D+00
      0.1304509632D+02  0.5353281423D+00
      0.3530512160D+01  0.4446345422D+00
 SP   3 1.00       0.000000000000
      0.2941249355D+01 -0.9996722919D-01  0.1559162750D+00
      0.6834830964D+00  0.3995128261D+00  0.6076837186D+00
      0.2222899159D+00  0.7001154689D+00  0.3919573931D+00
 ****
     23 0
 S   3 1.00       0.000000000000
      0.7161683735D+02  0.1543289673D+00
      0.1304509632D+02  0.5353281423D+00
      0.3530512160D+01  0.4446345422D+00
 SP   3 1.00       0.000000000000
      0.2941249355D+01 -0.9996722919D-01  0.1559162750D+00
      0.6834830964D+00  0.3995128261D+00  0.6076837186D+00
      0.2222899159D+00  0.7001154689D+00  0.3919573931D+00
 ****
     24 0
 S   3 1.00       0.000000000000
      0.1307093214D+03  0.1543289673D+00
      0.2380886605D+02  0.5353281423D+00
      0.6443608313D+01  0.4446345422D+00
 SP   3 1.00       0.000000000000
      0.5033151319D+01 -0.9996722919D-01  0.1559162750D+00
      0.1169596125D+01  0.3995128261D+00  0.6076837186D+00
      0.3803889600D+00  0.7001154689D+00  0.3919573931D+00
 ****
     25 0
 S   3 1.00       0.000000000000
      0.1307093214D+03  0.1543289673D+00
      0.2380886605D+02  0.5353281423D+00
      0.6443608313D+01  0.4446345422D+00
 SP   3 1.00       0.000000000000
      0.5033151319D+01 -0.9996722919D-01  0.1559162750D+00
      0.1169596125D+01  0.3995128261D+00  0.6076837186D+00
      0.3803889600D+00  0.7001154689D+00  0.3919573931D+00
 ****
     26 0
 S   3 1.00       0.000000000000
      0.3425250914D+01  0.1543289673D+00
      0.6239137298D+00  0.5353281423D+00
      0.1688554040D+00  0.4446345422D+00
 ****
     27 0
 S   3 1.00       0.000000000000
      0.3425250914D+01  0.1543289673D+00
      0.6239137298D+00  0.5353281423D+00
      0.1688554040D+00  0.4446345422D+00
 ****
     28 0
 S   3 1.00       0.000000000000
      0.3425250914D+01  0.1543289673D+00
      0.6239137298D+00  0.5353281423D+00
      0.1688554040D+00  0.4446345422D+00
 ****
     29 0
 S   3 1.00       0.000000000000
      0.3425250914D+01  0.1543289673D+00
      0.6239137298D+00  0.5353281423D+00
      0.1688554040D+00  0.4446345422D+00
 ****
     30 0
 S   3 1.00       0.000000000000
      0.3425250914D+01  0.1543289673D+00
      0.6239137298D+00  0.5353281423D+00
      0.1688554040D+00  0.4446345422D+00
 ****
     31 0
 S   3 1.00       0.000000000000
      0.3425250914D+01  0.1543289673D+00
      0.6239137298D+00  0.5353281423D+00
      0.1688554040D+00  0.4446345422D+00
 ****
     32 0
 S   3 1.00       0.000000000000
      0.3425250914D+01  0.1543289673D+00
      0.6239137298D+00  0.5353281423D+00
      0.1688554040D+00  0.4446345422D+00
 ****
     33 0
 S   3 1.00       0.000000000000
      0.3425250914D+01  0.1543289673D+00
      0.6239137298D+00  0.5353281423D+00
      0.1688554040D+00  0.4446345422D+00
 ****
     34 0
 S   3 1.00       0.000000000000
      0.3425250914D+01  0.1543289673D+00
      0.6239137298D+00  0.5353281423D+00
      0.1688554040D+00  0.4446345422D+00
 ****
     35 0
 S   3 1.00       0.000000000000
      0.3425250914D+01  0.1543289673D+00
      0.6239137298D+00  0.5353281423D+00
      0.1688554040D+00  0.4446345422D+00
 ****
     36 0
 S   3 1.00       0.000000000000
      0.3425250914D+01  0.1543289673D+00
      0.6239137298D+00  0.5353281423D+00
      0.1688554040D+00  0.4446345422D+00
 ****
     37 0
 S   3 1.00       0.000000000000
      0.3425250914D+01  0.1543289673D+00
      0.6239137298D+00  0.5353281423D+00
      0.1688554040D+00  0.4446345422D+00
 ****
     38 0
 S   3 1.00       0.000000000000
      0.3425250914D+01  0.1543289673D+00
      0.6239137298D+00  0.5353281423D+00
      0.1688554040D+00  0.4446345422D+00
 ****
     39 0
 S   3 1.00       0.000000000000
      0.3425250914D+01  0.1543289673D+00
      0.6239137298D+00  0.5353281423D+00
      0.1688554040D+00  0.4446345422D+00
 ****
     40 0
 S   3 1.00       0.000000000000
      0.3425250914D+01  0.1543289673D+00
      0.6239137298D+00  0.5353281423D+00
      0.1688554040D+00  0.4446345422D+00
 ****
     41 0
 S   3 1.00       0.000000000000
      0.3425250914D+01  0.1543289673D+00
      0.6239137298D+00  0.5353281423D+00
      0.1688554040D+00  0.4446345422D+00
 ****
     42 0
 S   3 1.00       0.000000000000
      0.3425250914D+01  0.1543289673D+00
      0.6239137298D+00  0.5353281423D+00
      0.1688554040D+00  0.4446345422D+00
 ****
     43 0
 S   3 1.00       0.000000000000
      0.3425250914D+01  0.1543289673D+00
      0.6239137298D+00  0.5353281423D+00
      0.1688554040D+00  0.4446345422D+00
 ****
     44 0
 S   3 1.00       0.000000000000
      0.3425250914D+01  0.1543289673D+00
      0.6239137298D+00  0.5353281423D+00
      0.1688554040D+00  0.4446345422D+00
 ****
     45 0
 S   3 1.00       0.000000000000
      0.3425250914D+01  0.1543289673D+00
      0.6239137298D+00  0.5353281423D+00
      0.1688554040D+00  0.4446345422D+00
 ****
     46 0
 S   3 1.00       0.000000000000
      0.3425250914D+01  0.1543289673D+00
      0.6239137298D+00  0.5353281423D+00
      0.1688554040D+00  0.4446345422D+00
 ****
     47 0
 S   3 1.00       0.000000000000
      0.3425250914D+01  0.1543289673D+00
      0.6239137298D+00  0.5353281423D+00
      0.1688554040D+00  0.4446345422D+00
 ****
     48 0
 S   3 1.00       0.000000000000
      0.3425250914D+01  0.1543289673D+00
      0.6239137298D+00  0.5353281423D+00
      0.1688554040D+00  0.4446345422D+00
 ****

 There are   148 symmetry adapted basis functions of A   symmetry.
 Integral buffers will be    131072 words long.
 Raffenetti 2 integral format.
 Two-electron integral symmetry is turned on.
   148 basis functions,   444 primitive gaussians,   148 cartesian basis functions
    90 alpha electrons       90 beta electrons
       nuclear repulsion energy      2111.8840359873 Hartrees.
 IExCor=  402 DFT=T Ex+Corr=B3LYP ExCW=0 ScaHFX=  0.200000
 ScaDFX=  0.800000  0.720000  1.000000  0.810000 ScalE2=  1.000000  1.000000
 IRadAn=      0 IRanWt=     -1 IRanGd=            0 ICorTp=0
 NAtoms=   48 NActive=   48 NUniq=   48 SFac= 7.50D-01 NAtFMM=   80 NAOKFM=F Big=F
 Leave Link  301 at Sun Oct  9 22:02:29 2022, MaxMem= 1610612736 cpu:       0.3
 (Enter /dataV/g09/l302.exe)
 NPDir=0 NMtPBC=     1 NCelOv=     1 NCel=       1 NClECP=     1 NCelD=      1
         NCelK=      1 NCelE2=     1 NClLst=     1 CellRange=     0.0.
 One-electron integrals computed using PRISM.
 NBasis=   148 RedAO= T  NBF=   148
 NBsUse=   148 1.00D-06 NBFU=   148
 Precomputing XC quadrature grid using
 IXCGrd= 2 IRadAn=           0 IRanWt=          -1 IRanGd=           0 AccXCQ= 1.00D-10.
 NRdTot=    3054 NPtTot=      389014 NUsed=      411029 NTot=      411061
 NSgBfM=   143   143   143   143   143 NAtAll=    48    48.
 Leave Link  302 at Sun Oct  9 22:02:30 2022, MaxMem= 1610612736 cpu:       1.6
 (Enter /dataV/g09/l303.exe)
 DipDrv:  MaxL=1.
 Leave Link  303 at Sun Oct  9 22:02:30 2022, MaxMem= 1610612736 cpu:       0.3
 (Enter /dataV/g09/l401.exe)
 Initial guess read from the checkpoint file:  compuesto2_2.chk
 B after Tr=     0.922315   -0.317118   -0.310603
         Rot=    0.470953   -0.521950    0.277187    0.654934 Ang= 123.81 deg.
 Guess basis will be translated and rotated to current coordinates.
 Initial guess orbital symmetries:
       Occupied  (A) (A) (A) (A) (A) (A) (A) (A) (A) (A) (A) (A)
                 (A) (A) (A) (A) (A) (A) (A) (A) (A) (A) (A) (A)
                 (A) (A) (A) (A) (A) (A) (A) (A) (A) (A) (A) (A)
                 (A) (A) (A) (A) (A) (A) (A) (A) (A) (A) (A) (A)
                 (A) (A) (A) (A) (A) (A) (A) (A) (A) (A) (A) (A)
                 (A) (A) (A) (A) (A) (A) (A) (A) (A) (A) (A) (A)
                 (A) (A) (A) (A) (A) (A) (A) (A) (A) (A) (A) (A)
                 (A) (A) (A) (A) (A) (A)
       Virtual   (A) (A) (A) (A) (A) (A) (A) (A) (A) (A) (A) (A)
                 (A) (A) (A) (A) (A) (A) (A) (A) (A) (A) (A) (A)
                 (A) (A) (A) (A) (A) (A) (A) (A) (A) (A) (A) (A)
                 (A) (A) (A) (A) (A) (A) (A) (A) (A) (A) (A) (A)
                 (A) (A) (A) (A) (A) (A) (A) (A) (A) (A)
 The electronic state of the initial guess is 1-A.
 Leave Link  401 at Sun Oct  9 22:02:30 2022, MaxMem= 1610612736 cpu:       0.5
 (Enter /dataV/g09/l502.exe)
 Closed shell SCF:
 Requested convergence on RMS density matrix=1.00D-08 within 128 cycles.
 Requested convergence on MAX density matrix=1.00D-06.
 Requested convergence on             energy=1.00D-06.
 No special actions if energy rises.
 Using DIIS extrapolation, IDIIS=  1040.
 Integral symmetry usage will be decided dynamically.
       410584 words used for storage of precomputed grid.
 Keep R1 ints in memory in canonical form, NReq=62942300.
 IEnd=      496535 IEndB=      496535 NGot=  1610612736 MDV=  1549363015
 LenX=  1549363015 LenY=  1549340670
 Symmetry not used in FoFDir.
 MinBra= 0 MaxBra= 1 Meth= 1.
 IRaf=       0 NMat=   1 IRICut=       1 DoRegI=T DoRafI=F ISym2E= 0 JSym2E=0.

 Cycle   1  Pass 1  IDiag  1:
 E= -1078.49163823775    
 DIIS: error= 4.02D-02 at cycle   1 NSaved=   1.
 NSaved= 1 IEnMin= 1 EnMin= -1078.49163823775     IErMin= 1 ErrMin= 4.02D-02
 ErrMax= 4.02D-02 EMaxC= 1.00D-01 BMatC= 5.95D-01 BMatP= 5.95D-01
 IDIUse=3 WtCom= 5.98D-01 WtEn= 4.02D-01
 Coeff-Com:  0.100D+01
 Coeff-En:   0.100D+01
 Coeff:      0.100D+01
 Gap=     0.145 Goal=   None    Shift=    0.000
 GapD=    0.145 DampG=1.000 DampE=0.500 DampFc=0.5000 IDamp=-1.
 Damping current iteration by 5.00D-01
 RMSDP=1.74D-02 MaxDP=3.14D-01              OVMax= 0.00D+00

 Cycle   2  Pass 1  IDiag  1:
 E= -1079.42861568469     Delta-E=       -0.936977446938 Rises=F Damp=T
 DIIS: error= 2.20D-02 at cycle   2 NSaved=   2.
 NSaved= 2 IEnMin= 2 EnMin= -1079.42861568469     IErMin= 2 ErrMin= 2.20D-02
 ErrMax= 2.20D-02 EMaxC= 1.00D-01 BMatC= 1.74D-01 BMatP= 5.95D-01
 IDIUse=3 WtCom= 7.80D-01 WtEn= 2.20D-01
 Coeff-Com: -0.110D+01 0.210D+01
 Coeff-En:   0.000D+00 0.100D+01
 Coeff:     -0.854D+00 0.185D+01
 Gap=     0.100 Goal=   None    Shift=    0.000
 RMSDP=9.77D-03 MaxDP=1.80D-01 DE=-9.37D-01 OVMax= 0.00D+00

 Cycle   3  Pass 1  IDiag  1:
 E= -1080.44165979615     Delta-E=       -1.013044111466 Rises=F Damp=F
 DIIS: error= 1.92D-02 at cycle   3 NSaved=   3.
 NSaved= 3 IEnMin= 3 EnMin= -1080.44165979615     IErMin= 3 ErrMin= 1.92D-02
 ErrMax= 1.92D-02 EMaxC= 1.00D-01 BMatC= 2.85D-02 BMatP= 1.74D-01
 IDIUse=3 WtCom= 8.08D-01 WtEn= 1.92D-01
 Coeff-Com: -0.676D+00 0.125D+01 0.429D+00
 Coeff-En:   0.000D+00 0.000D+00 0.100D+01
 Coeff:     -0.546D+00 0.101D+01 0.539D+00
 Gap=     0.090 Goal=   None    Shift=    0.000
 RMSDP=2.46D-03 MaxDP=1.27D-01 DE=-1.01D+00 OVMax= 0.00D+00

 Cycle   4  Pass 1  IDiag  1:
 E= -1080.45049868163     Delta-E=       -0.008838885474 Rises=F Damp=F
 DIIS: error= 1.89D-02 at cycle   4 NSaved=   4.
 NSaved= 4 IEnMin= 4 EnMin= -1080.45049868163     IErMin= 4 ErrMin= 1.89D-02
 ErrMax= 1.89D-02 EMaxC= 1.00D-01 BMatC= 2.17D-02 BMatP= 2.85D-02
 IDIUse=3 WtCom= 8.11D-01 WtEn= 1.89D-01
 Coeff-Com: -0.327D+00 0.591D+00 0.421D+00 0.314D+00
 Coeff-En:   0.000D+00 0.000D+00 0.444D+00 0.556D+00
 Coeff:     -0.265D+00 0.479D+00 0.426D+00 0.360D+00
 Gap=     0.109 Goal=   None    Shift=    0.000
 RMSDP=1.50D-03 MaxDP=7.06D-02 DE=-8.84D-03 OVMax= 0.00D+00

 Cycle   5  Pass 1  IDiag  1:
 E= -1080.47469934561     Delta-E=       -0.024200663981 Rises=F Damp=F
 DIIS: error= 3.47D-03 at cycle   5 NSaved=   5.
 NSaved= 5 IEnMin= 5 EnMin= -1080.47469934561     IErMin= 5 ErrMin= 3.47D-03
 ErrMax= 3.47D-03 EMaxC= 1.00D-01 BMatC= 9.72D-04 BMatP= 2.17D-02
 IDIUse=3 WtCom= 9.65D-01 WtEn= 3.47D-02
 Coeff-Com: -0.369D-01 0.625D-01 0.171D+00 0.238D+00 0.566D+00
 Coeff-En:   0.000D+00 0.000D+00 0.000D+00 0.545D-01 0.945D+00
 Coeff:     -0.356D-01 0.603D-01 0.165D+00 0.231D+00 0.579D+00
 Gap=     0.097 Goal=   None    Shift=    0.000
 RMSDP=4.29D-04 MaxDP=1.49D-02 DE=-2.42D-02 OVMax= 0.00D+00

 Cycle   6  Pass 1  IDiag  1:
 E= -1080.47608734320     Delta-E=       -0.001387997590 Rises=F Damp=F
 DIIS: error= 8.01D-04 at cycle   6 NSaved=   6.
 NSaved= 6 IEnMin= 6 EnMin= -1080.47608734320     IErMin= 6 ErrMin= 8.01D-04
 ErrMax= 8.01D-04 EMaxC= 1.00D-01 BMatC= 7.56D-05 BMatP= 9.72D-04
 IDIUse=3 WtCom= 9.92D-01 WtEn= 8.01D-03
 Coeff-Com:  0.360D-02-0.851D-02 0.535D-01 0.795D-01 0.309D+00 0.563D+00
 Coeff-En:   0.000D+00 0.000D+00 0.000D+00 0.000D+00 0.502D-01 0.950D+00
 Coeff:      0.357D-02-0.844D-02 0.531D-01 0.789D-01 0.307D+00 0.566D+00
 Gap=     0.097 Goal=   None    Shift=    0.000
 RMSDP=9.89D-05 MaxDP=2.26D-03 DE=-1.39D-03 OVMax= 0.00D+00

 Cycle   7  Pass 1  IDiag  1:
 E= -1080.47619278139     Delta-E=       -0.000105438198 Rises=F Damp=F
 DIIS: error= 2.71D-04 at cycle   7 NSaved=   7.
 NSaved= 7 IEnMin= 7 EnMin= -1080.47619278139     IErMin= 7 ErrMin= 2.71D-04
 ErrMax= 2.71D-04 EMaxC= 1.00D-01 BMatC= 5.77D-06 BMatP= 7.56D-05
 IDIUse=3 WtCom= 9.97D-01 WtEn= 2.71D-03
 Coeff-Com:  0.309D-02-0.597D-02 0.498D-02 0.188D-02 0.726D-01 0.273D+00
 Coeff-Com:  0.650D+00
 Coeff-En:   0.000D+00 0.000D+00 0.000D+00 0.000D+00 0.000D+00 0.000D+00
 Coeff-En:   0.100D+01
 Coeff:      0.308D-02-0.595D-02 0.496D-02 0.188D-02 0.724D-01 0.272D+00
 Coeff:      0.651D+00
 Gap=     0.098 Goal=   None    Shift=    0.000
 RMSDP=2.83D-05 MaxDP=5.26D-04 DE=-1.05D-04 OVMax= 0.00D+00

 Cycle   8  Pass 1  IDiag  1:
 E= -1080.47620011434     Delta-E=       -0.000007332949 Rises=F Damp=F
 DIIS: error= 1.08D-04 at cycle   8 NSaved=   8.
 NSaved= 8 IEnMin= 8 EnMin= -1080.47620011434     IErMin= 8 ErrMin= 1.08D-04
 ErrMax= 1.08D-04 EMaxC= 1.00D-01 BMatC= 7.98D-07 BMatP= 5.77D-06
 IDIUse=3 WtCom= 9.99D-01 WtEn= 1.08D-03
 Coeff-Com:  0.193D-02-0.353D-02-0.257D-02-0.686D-02 0.141D-01 0.111D+00
 Coeff-Com:  0.385D+00 0.501D+00
 Coeff-En:   0.000D+00 0.000D+00 0.000D+00 0.000D+00 0.000D+00 0.000D+00
 Coeff-En:   0.341D-01 0.966D+00
 Coeff:      0.193D-02-0.352D-02-0.256D-02-0.685D-02 0.141D-01 0.111D+00
 Coeff:      0.385D+00 0.501D+00
 Gap=     0.098 Goal=   None    Shift=    0.000
 RMSDP=9.50D-06 MaxDP=2.18D-04 DE=-7.33D-06 OVMax= 0.00D+00

 Cycle   9  Pass 1  IDiag  1:
 E= -1080.47620121869     Delta-E=       -0.000001104346 Rises=F Damp=F
 DIIS: error= 1.43D-05 at cycle   9 NSaved=   9.
 NSaved= 9 IEnMin= 9 EnMin= -1080.47620121869     IErMin= 9 ErrMin= 1.43D-05
 ErrMax= 1.43D-05 EMaxC= 1.00D-01 BMatC= 2.64D-08 BMatP= 7.98D-07
 IDIUse=1 WtCom= 1.00D+00 WtEn= 0.00D+00
 Coeff-Com:  0.398D-03-0.714D-03-0.119D-02-0.214D-02-0.411D-03 0.186D-01
 Coeff-Com:  0.811D-01 0.182D+00 0.723D+00
 Coeff:      0.398D-03-0.714D-03-0.119D-02-0.214D-02-0.411D-03 0.186D-01
 Coeff:      0.811D-01 0.182D+00 0.723D+00
 Gap=     0.098 Goal=   None    Shift=    0.000
 RMSDP=2.48D-06 MaxDP=6.48D-05 DE=-1.10D-06 OVMax= 0.00D+00

 Cycle  10  Pass 1  IDiag  1:
 E= -1080.47620125251     Delta-E=       -0.000000033820 Rises=F Damp=F
 DIIS: error= 7.57D-06 at cycle  10 NSaved=  10.
 NSaved=10 IEnMin=10 EnMin= -1080.47620125251     IErMin=10 ErrMin= 7.57D-06
 ErrMax= 7.57D-06 EMaxC= 1.00D-01 BMatC= 7.36D-09 BMatP= 2.64D-08
 IDIUse=1 WtCom= 1.00D+00 WtEn= 0.00D+00
 Coeff-Com:  0.988D-05-0.844D-05-0.316D-03-0.117D-06-0.231D-02-0.676D-02
 Coeff-Com: -0.175D-01 0.186D-01 0.389D+00 0.620D+00
 Coeff:      0.988D-05-0.844D-05-0.316D-03-0.117D-06-0.231D-02-0.676D-02
 Coeff:     -0.175D-01 0.186D-01 0.389D+00 0.620D+00
 Gap=     0.098 Goal=   None    Shift=    0.000
 RMSDP=1.05D-06 MaxDP=2.95D-05 DE=-3.38D-08 OVMax= 0.00D+00

 Cycle  11  Pass 1  IDiag  1:
 E= -1080.47620126294     Delta-E=       -0.000000010428 Rises=F Damp=F
 DIIS: error= 2.62D-06 at cycle  11 NSaved=  11.
 NSaved=11 IEnMin=11 EnMin= -1080.47620126294     IErMin=11 ErrMin= 2.62D-06
 ErrMax= 2.62D-06 EMaxC= 1.00D-01 BMatC= 5.59D-10 BMatP= 7.36D-09
 IDIUse=1 WtCom= 1.00D+00 WtEn= 0.00D+00
 Coeff-Com: -0.148D-04 0.312D-04-0.896D-04 0.162D-03-0.120D-02-0.503D-02
 Coeff-Com: -0.161D-01-0.376D-02 0.156D+00 0.325D+00 0.545D+00
 Coeff:     -0.148D-04 0.312D-04-0.896D-04 0.162D-03-0.120D-02-0.503D-02
 Coeff:     -0.161D-01-0.376D-02 0.156D+00 0.325D+00 0.545D+00
 Gap=     0.098 Goal=   None    Shift=    0.000
 RMSDP=3.04D-07 MaxDP=8.79D-06 DE=-1.04D-08 OVMax= 0.00D+00

 Cycle  12  Pass 1  IDiag  1:
 E= -1080.47620126373     Delta-E=       -0.000000000790 Rises=F Damp=F
 DIIS: error= 8.62D-07 at cycle  12 NSaved=  12.
 NSaved=12 IEnMin=12 EnMin= -1080.47620126373     IErMin=12 ErrMin= 8.62D-07
 ErrMax= 8.62D-07 EMaxC= 1.00D-01 BMatC= 5.86D-11 BMatP= 5.59D-10
 IDIUse=1 WtCom= 1.00D+00 WtEn= 0.00D+00
 Coeff-Com: -0.110D-04 0.204D-04 0.160D-04 0.890D-04-0.170D-03-0.138D-02
 Coeff-Com: -0.539D-02-0.498D-02 0.145D-01 0.580D-01 0.263D+00 0.677D+00
 Coeff:     -0.110D-04 0.204D-04 0.160D-04 0.890D-04-0.170D-03-0.138D-02
 Coeff:     -0.539D-02-0.498D-02 0.145D-01 0.580D-01 0.263D+00 0.677D+00
 Gap=     0.098 Goal=   None    Shift=    0.000
 RMSDP=1.07D-07 MaxDP=2.80D-06 DE=-7.90D-10 OVMax= 0.00D+00

 Cycle  13  Pass 1  IDiag  1:
 E= -1080.47620126382     Delta-E=       -0.000000000091 Rises=F Damp=F
 DIIS: error= 1.87D-07 at cycle  13 NSaved=  13.
 NSaved=13 IEnMin=13 EnMin= -1080.47620126382     IErMin=13 ErrMin= 1.87D-07
 ErrMax= 1.87D-07 EMaxC= 1.00D-01 BMatC= 7.70D-12 BMatP= 5.86D-11
 IDIUse=1 WtCom= 1.00D+00 WtEn= 0.00D+00
 Coeff-Com: -0.285D-05 0.505D-05 0.152D-04 0.252D-04 0.369D-04-0.210D-03
 Coeff-Com: -0.112D-02-0.192D-02-0.640D-02-0.116D-02 0.780D-01 0.329D+00
 Coeff-Com:  0.604D+00
 Coeff:     -0.285D-05 0.505D-05 0.152D-04 0.252D-04 0.369D-04-0.210D-03
 Coeff:     -0.112D-02-0.192D-02-0.640D-02-0.116D-02 0.780D-01 0.329D+00
 Coeff:      0.604D+00
 Gap=     0.098 Goal=   None    Shift=    0.000
 RMSDP=3.60D-08 MaxDP=1.13D-06 DE=-9.14D-11 OVMax= 0.00D+00

 Cycle  14  Pass 1  IDiag  1:
 E= -1080.47620126383     Delta-E=       -0.000000000015 Rises=F Damp=F
 DIIS: error= 6.62D-08 at cycle  14 NSaved=  14.
 NSaved=14 IEnMin=14 EnMin= -1080.47620126383     IErMin=14 ErrMin= 6.62D-08
 ErrMax= 6.62D-08 EMaxC= 1.00D-01 BMatC= 9.27D-13 BMatP= 7.70D-12
 IDIUse=1 WtCom= 1.00D+00 WtEn= 0.00D+00
 Coeff-Com: -0.207D-06 0.237D-06 0.536D-05-0.383D-05 0.485D-04 0.118D-03
 Coeff-Com:  0.373D-03-0.851D-04-0.562D-02-0.110D-01-0.846D-02 0.398D-01
 Coeff-Com:  0.264D+00 0.721D+00
 Coeff:     -0.207D-06 0.237D-06 0.536D-05-0.383D-05 0.485D-04 0.118D-03
 Coeff:      0.373D-03-0.851D-04-0.562D-02-0.110D-01-0.846D-02 0.398D-01
 Coeff:      0.264D+00 0.721D+00
 Gap=     0.098 Goal=   None    Shift=    0.000
 RMSDP=1.74D-08 MaxDP=7.47D-07 DE=-1.46D-11 OVMax= 0.00D+00

 Cycle  15  Pass 1  IDiag  1:
 E= -1080.47620126383     Delta-E=        0.000000000005 Rises=F Damp=F
 DIIS: error= 2.98D-08 at cycle  15 NSaved=  15.
 NSaved=15 IEnMin=14 EnMin= -1080.47620126383     IErMin=15 ErrMin= 2.98D-08
 ErrMax= 2.98D-08 EMaxC= 1.00D-01 BMatC= 8.69D-14 BMatP= 9.27D-13
 IDIUse=1 WtCom= 1.00D+00 WtEn= 0.00D+00
 Coeff-Com:  0.262D-06-0.519D-06 0.410D-06-0.487D-05 0.164D-04 0.768D-04
 Coeff-Com:  0.306D-03 0.217D-03-0.160D-02-0.481D-02-0.137D-01-0.225D-01
 Coeff-Com:  0.438D-01 0.318D+00 0.680D+00
 Coeff:      0.262D-06-0.519D-06 0.410D-06-0.487D-05 0.164D-04 0.768D-04
 Coeff:      0.306D-03 0.217D-03-0.160D-02-0.481D-02-0.137D-01-0.225D-01
 Coeff:      0.438D-01 0.318D+00 0.680D+00
 Gap=     0.098 Goal=   None    Shift=    0.000
 RMSDP=6.28D-09 MaxDP=2.57D-07 DE= 4.55D-12 OVMax= 0.00D+00

 SCF Done:  E(RB3LYP) =  -1080.47620126     A.U. after   15 cycles
             Convg  =    0.6281D-08             -V/T =  2.0155
 KE= 1.063972671945D+03 PE=-6.737342418534D+03 EE= 2.481009509338D+03
 Leave Link  502 at Sun Oct  9 22:02:59 2022, MaxMem= 1610612736 cpu:      83.4
 (Enter /dataV/g09/l601.exe)
 Copying SCF densities to generalized density rwf, IOpCl= 0 IROHF=0.

 **********************************************************************

            Population analysis using the SCF density.

 **********************************************************************

 Orbital symmetries:
 BldTbl:  Degeneracy threshold= 1.00D-02
       Occupied  (A) (A) (A) (A) (A) (A) (A) (A) (A) (A) (A) (A)
                 (A) (A) (A) (A) (A) (A) (A) (A) (A) (A) (A) (A)
                 (A) (A) (A) (A) (A) (A) (A) (A) (A) (A) (A) (A)
                 (A) (A) (A) (A) (A) (A) (A) (A) (A) (A) (A) (A)
                 (A) (A) (A) (A) (A) (A) (A) (A) (A) (A) (A) (A)
                 (A) (A) (A) (A) (A) (A) (A) (A) (A) (A) (A) (A)
                 (A) (A) (A) (A) (A) (A) (A) (A) (A) (A) (A) (A)
                 (A) (A) (A) (A) (A) (A)
       Virtual   (A) (A) (A) (A) (A) (A) (A) (A) (A) (A) (A) (A)
                 (A) (A) (A) (A) (A) (A) (A) (A) (A) (A) (A) (A)
                 (A) (A) (A) (A) (A) (A) (A) (A) (A) (A) (A) (A)
                 (A) (A) (A) (A) (A) (A) (A) (A) (A) (A) (A) (A)
                 (A) (A) (A) (A) (A) (A) (A) (A) (A) (A)
 The electronic state is 1-A.
 Alpha  occ. eigenvalues --  -18.86212 -18.86069 -18.85422 -14.13575 -10.06676
 Alpha  occ. eigenvalues --  -10.06497 -10.05479 -10.05216 -10.05136 -10.03585
 Alpha  occ. eigenvalues --  -10.02969 -10.02693 -10.01679 -10.01576 -10.01355
 Alpha  occ. eigenvalues --  -10.00569 -10.00464 -10.00416 -10.00297 -10.00251
 Alpha  occ. eigenvalues --  -10.00200 -10.00174 -10.00172  -9.99844  -9.95882
 Alpha  occ. eigenvalues --   -0.96177  -0.96064  -0.94202  -0.89787  -0.82057
 Alpha  occ. eigenvalues --   -0.80124  -0.77741  -0.75186  -0.72237  -0.71764
 Alpha  occ. eigenvalues --   -0.70212  -0.68239  -0.67072  -0.65298  -0.62678
 Alpha  occ. eigenvalues --   -0.60412  -0.58575  -0.57430  -0.56923  -0.54564
 Alpha  occ. eigenvalues --   -0.52807  -0.52680  -0.50244  -0.49278  -0.47127
 Alpha  occ. eigenvalues --   -0.45821  -0.45388  -0.44808  -0.43704  -0.42175
 Alpha  occ. eigenvalues --   -0.41484  -0.40548  -0.39862  -0.39723  -0.38992
 Alpha  occ. eigenvalues --   -0.37952  -0.37642  -0.37436  -0.37395  -0.36858
 Alpha  occ. eigenvalues --   -0.36144  -0.35813  -0.34398  -0.33149  -0.32981
 Alpha  occ. eigenvalues --   -0.32108  -0.31818  -0.31639  -0.30525  -0.30184
 Alpha  occ. eigenvalues --   -0.29171  -0.28407  -0.27937  -0.26025  -0.22397
 Alpha  occ. eigenvalues --   -0.22329  -0.20827  -0.19385  -0.18964  -0.16627
 Alpha  occ. eigenvalues --   -0.16373  -0.14633  -0.12919  -0.12433  -0.09299
 Alpha virt. eigenvalues --    0.00466   0.05906   0.08677   0.09334   0.10177
 Alpha virt. eigenvalues --    0.12846   0.23554   0.26691   0.28399   0.29027
 Alpha virt. eigenvalues --    0.31332   0.33399   0.33650   0.34168   0.35503
 Alpha virt. eigenvalues --    0.35713   0.36975   0.37290   0.38636   0.38809
 Alpha virt. eigenvalues --    0.40858   0.41099   0.41771   0.42224   0.43123
 Alpha virt. eigenvalues --    0.43492   0.44209   0.44388   0.44492   0.46218
 Alpha virt. eigenvalues --    0.46504   0.47257   0.47523   0.48212   0.49030
 Alpha virt. eigenvalues --    0.49328   0.49763   0.50393   0.50509   0.51468
 Alpha virt. eigenvalues --    0.51670   0.52732   0.53788   0.55339   0.55655
 Alpha virt. eigenvalues --    0.57055   0.58287   0.58686   0.59087   0.61560
 Alpha virt. eigenvalues --    0.63160   0.63599   0.64909   0.65839   0.73817
 Alpha virt. eigenvalues --    0.79315   0.79356   0.83533
     Molecular Orbital Coefficients:
                           1         2         3         4         5
                           O         O         O         O         O
     Eigenvalues --   -18.86212 -18.86069 -18.85422 -14.13575 -10.06676
   1 1   O  1S         -0.00127   0.00000   0.99344   0.00000   0.00000
   2        2S         -0.00002   0.00000   0.02939   0.00000   0.00000
   3        2PX         0.00002   0.00000  -0.00023   0.00000   0.00000
   4        2PY         0.00009   0.00000  -0.00084   0.00000   0.00000
   5        2PZ         0.00008   0.00000   0.00433   0.00000   0.00000
   6 2   C  1S         -0.00003   0.00000  -0.00002   0.00000   0.00000
   7        2S          0.00031   0.00000   0.00032   0.00000   0.00000
   8        2PX        -0.00017   0.00000  -0.00016   0.00000   0.00000
   9        2PY         0.00025   0.00000   0.00032   0.00000   0.00000
  10        2PZ        -0.00043   0.00000  -0.00022   0.00000   0.00000
  11 3   C  1S          0.00070   0.00000   0.00000   0.00000   0.00004
  12        2S         -0.00791   0.00000  -0.00002   0.00001   0.00000
  13        2PX         0.00294   0.00000   0.00005   0.00000  -0.00001
  14        2PY        -0.00271   0.00000  -0.00003  -0.00001   0.00001
  15        2PZ         0.00609   0.00000   0.00001   0.00000   0.00001
  16 4   C  1S         -0.00001  -0.00002   0.00000  -0.00003  -0.00124
  17        2S          0.00001   0.00012   0.00000   0.00044   0.00029
  18        2PX         0.00000  -0.00009   0.00000  -0.00024   0.00026
  19        2PY         0.00004   0.00001   0.00000  -0.00029   0.00007
  20        2PZ         0.00000   0.00005   0.00000  -0.00002   0.00005
  21 5   C  1S          0.00000  -0.00003   0.00000   0.00003  -0.01310
  22        2S          0.00001   0.00035   0.00000  -0.00022  -0.00785
  23        2PX         0.00000  -0.00008   0.00000   0.00012   0.00472
  24        2PY         0.00001   0.00012   0.00000   0.00004   0.00170
  25        2PZ        -0.00001   0.00036   0.00000   0.00015  -0.00272
  26 6   C  1S          0.00000   0.00064   0.00000   0.00000   0.98973
  27        2S          0.00000  -0.00501   0.00000   0.00038   0.04369
  28        2PX         0.00000   0.00084   0.00000  -0.00014   0.00019
  29        2PY         0.00000  -0.00250   0.00000   0.00001  -0.00085
  30        2PZ         0.00000  -0.00407   0.00000  -0.00027  -0.00050
  31 7   C  1S          0.00000  -0.00003   0.00000   0.00061  -0.03330
  32        2S          0.00000   0.00041   0.00000  -0.00710  -0.00873
  33        2PX         0.00000   0.00013   0.00000  -0.00180  -0.00443
  34        2PY         0.00000   0.00013   0.00000   0.00112   0.00091
  35        2PZ         0.00000   0.00036   0.00000   0.00546  -0.00332
  36 8   N  1S          0.00000   0.00000   0.00000   0.99232  -0.00001
  37        2S          0.00000   0.00001   0.00000   0.03674   0.00056
  38        2PX         0.00000  -0.00005   0.00000   0.00374  -0.00012
  39        2PY         0.00000  -0.00001   0.00000  -0.00005  -0.00009
  40        2PZ         0.00000  -0.00006   0.00000   0.00369   0.00029
  41 9   C  1S          0.00000   0.00000   0.00000   0.00059   0.00718
  42        2S          0.00003  -0.00002   0.00000  -0.00607   0.00047
  43        2PX        -0.00002  -0.00001   0.00000   0.00278  -0.00002
  44        2PY         0.00001  -0.00001   0.00000   0.00419   0.00000
  45        2PZ        -0.00001  -0.00001   0.00000  -0.00156   0.00009
  46 10  C  1S          0.00001   0.00000   0.00002   0.00000   0.00000
  47        2S         -0.00003   0.00000  -0.00008   0.00000   0.00000
  48        2PX         0.00002   0.00000  -0.00004   0.00000   0.00000
  49        2PY         0.00008   0.00000  -0.00012   0.00000   0.00000
  50        2PZ         0.00006   0.00000   0.00004   0.00000   0.00000
  51 11  C  1S          0.00000   0.00000   0.00000   0.00000   0.00000
  52        2S         -0.00001   0.00000   0.00001   0.00000   0.00000
  53        2PX        -0.00001   0.00000   0.00001   0.00000   0.00000
  54        2PY         0.00000   0.00000   0.00000   0.00000   0.00000
  55        2PZ         0.00001   0.00000   0.00000   0.00000   0.00000
  56 12  C  1S          0.00000   0.00000   0.00000   0.00000   0.00000
  57        2S          0.00000   0.00000   0.00000   0.00000   0.00000
  58        2PX         0.00000   0.00000   0.00000   0.00000   0.00000
  59        2PY         0.00000   0.00000   0.00000   0.00000   0.00000
  60        2PZ         0.00000   0.00000   0.00000   0.00000   0.00000
  61 13  C  1S          0.00000   0.00000   0.00000   0.00000   0.00000
  62        2S          0.00000   0.00000   0.00000   0.00000   0.00000
  63        2PX         0.00000   0.00000   0.00000   0.00000   0.00000
  64        2PY         0.00000   0.00000   0.00000   0.00000   0.00000
  65        2PZ         0.00000   0.00000   0.00000   0.00000   0.00000
  66 14  C  1S          0.00000   0.00000   0.00000   0.00000   0.00000
  67        2S          0.00000   0.00000   0.00000   0.00000   0.00000
  68        2PX         0.00000   0.00000   0.00000   0.00000   0.00000
  69        2PY        -0.00001   0.00000   0.00000   0.00000   0.00000
  70        2PZ         0.00000   0.00000   0.00000   0.00000   0.00000
  71 15  C  1S          0.00000   0.00000   0.00000   0.00000   0.00000
  72        2S          0.00000   0.00000   0.00000   0.00000   0.00000
  73        2PX         0.00000   0.00000   0.00000   0.00000   0.00000
  74        2PY         0.00000   0.00000   0.00000   0.00000   0.00000
  75        2PZ         0.00000   0.00000   0.00000   0.00000   0.00000
  76 16  C  1S          0.00000   0.00000   0.00000   0.00000   0.00000
  77        2S          0.00000   0.00000   0.00000   0.00000   0.00000
  78        2PX         0.00000   0.00000   0.00000   0.00000   0.00000
  79        2PY         0.00000   0.00000   0.00000   0.00000   0.00000
  80        2PZ         0.00000   0.00000   0.00000   0.00000   0.00000
  81 17  C  1S          0.00000   0.00000   0.00000   0.00000   0.00000
  82        2S          0.00000   0.00000   0.00000   0.00000   0.00000
  83        2PX         0.00000   0.00000   0.00000   0.00000   0.00000
  84        2PY         0.00000   0.00000   0.00000   0.00000   0.00000
  85        2PZ         0.00000   0.00000   0.00000   0.00000   0.00000
  86 18  C  1S          0.00000   0.00000   0.00000   0.00000   0.00000
  87        2S          0.00000   0.00000   0.00000   0.00000   0.00000
  88        2PX         0.00000   0.00000   0.00000   0.00000   0.00000
  89        2PY         0.00000   0.00000   0.00000   0.00000   0.00000
  90        2PZ         0.00000   0.00000   0.00000   0.00000   0.00000
  91 19  C  1S          0.00000   0.00000   0.00000   0.00000   0.00000
  92        2S          0.00000   0.00000   0.00000   0.00000   0.00000
  93        2PX         0.00000   0.00000   0.00000   0.00000   0.00000
  94        2PY         0.00000   0.00000   0.00000   0.00000   0.00000
  95        2PZ         0.00000   0.00000   0.00000   0.00000   0.00000
  96 20  C  1S          0.00000   0.00000   0.00000   0.00000   0.00000
  97        2S          0.00000   0.00000   0.00000   0.00000   0.00000
  98        2PX         0.00000   0.00000   0.00000   0.00000   0.00000
  99        2PY         0.00000   0.00000   0.00000   0.00000   0.00000
 100        2PZ         0.00000   0.00000   0.00000   0.00000   0.00000
 101 21  C  1S          0.00000   0.00000   0.00000   0.00000   0.00000
 102        2S         -0.00002   0.00000   0.00001   0.00000   0.00000
 103        2PX         0.00002   0.00000   0.00000   0.00000   0.00000
 104        2PY         0.00002   0.00000   0.00000   0.00000   0.00000
 105        2PZ         0.00004   0.00000   0.00000   0.00000   0.00000
 106 22  C  1S          0.00001   0.00000   0.00064   0.00000   0.00000
 107        2S         -0.00008   0.00000  -0.00515   0.00000   0.00000
 108        2PX         0.00009   0.00000   0.00374   0.00000   0.00000
 109        2PY         0.00006   0.00000  -0.00207   0.00000   0.00000
 110        2PZ        -0.00001   0.00000   0.00233   0.00000   0.00000
 111 23  C  1S         -0.00002   0.00000   0.00000   0.00001  -0.00010
 112        2S          0.00024   0.00001  -0.00001  -0.00007  -0.00014
 113        2PX        -0.00019   0.00000   0.00000   0.00007   0.00004
 114        2PY         0.00015  -0.00001  -0.00001   0.00002   0.00012
 115        2PZ        -0.00042   0.00000   0.00000   0.00008  -0.00004
 116 24  O  1S          0.99360   0.00001   0.00128   0.00000   0.00000
 117        2S          0.02865   0.00000   0.00003   0.00000   0.00000
 118        2PX         0.00230   0.00000   0.00001   0.00000   0.00000
 119        2PY        -0.00215   0.00000  -0.00009   0.00000   0.00000
 120        2PZ         0.00477   0.00000   0.00001   0.00000   0.00000
 121 25  O  1S         -0.00001   0.99344   0.00000   0.00001   0.00070
 122        2S          0.00000   0.02938   0.00000  -0.00002  -0.00581
 123        2PX         0.00000  -0.00276   0.00000   0.00003  -0.00110
 124        2PY         0.00000  -0.00316   0.00000   0.00000   0.00199
 125        2PZ         0.00000  -0.00117   0.00000   0.00007   0.00357
 126 26  H  1S         -0.00008   0.00000  -0.00738   0.00000   0.00000
 127 27  H  1S          0.00003   0.00000   0.00020   0.00000   0.00001
 128 28  H  1S          0.00001  -0.00015   0.00000   0.00002  -0.00045
 129 29  H  1S          0.00000  -0.00019   0.00000  -0.00006   0.00018
 130 30  H  1S          0.00000  -0.00003   0.00000   0.00031   0.00030
 131 31  H  1S          0.00000   0.00045   0.00000   0.00018  -0.00969
 132 32  H  1S          0.00000  -0.00013   0.00000   0.00048   0.00041
 133 33  H  1S          0.00000   0.00017   0.00000   0.00032   0.00048
 134 34  H  1S          0.00000  -0.00012   0.00000  -0.00868  -0.00041
 135 35  H  1S         -0.00005   0.00001   0.00000   0.00017  -0.00009
 136 36  H  1S         -0.00001   0.00001   0.00000   0.00051  -0.00006
 137 37  H  1S          0.00000   0.00000  -0.00001   0.00000   0.00000
 138 38  H  1S          0.00000   0.00000   0.00000   0.00000   0.00000
 139 39  H  1S          0.00000   0.00000   0.00000   0.00000   0.00000
 140 40  H  1S         -0.00001   0.00000   0.00000   0.00000   0.00000
 141 41  H  1S          0.00000   0.00000   0.00000   0.00000   0.00000
 142 42  H  1S          0.00000   0.00000   0.00000   0.00000   0.00000
 143 43  H  1S          0.00000   0.00000   0.00000   0.00000   0.00000
 144 44  H  1S          0.00000   0.00000   0.00000   0.00000   0.00000
 145 45  H  1S          0.00007   0.00000  -0.00001   0.00000   0.00000
 146 46  H  1S         -0.00002   0.00000   0.00048   0.00000   0.00000
 147 47  H  1S         -0.00002   0.00000   0.00036   0.00000   0.00000
 148 48  H  1S          0.00000  -0.00742   0.00000  -0.00010  -0.00104
                           6         7         8         9        10
                           O         O         O         O         O
     Eigenvalues --   -10.06497 -10.05479 -10.05216 -10.05136 -10.03585
   1 1   O  1S          0.00000   0.00069   0.00001   0.00000   0.00000
   2        2S          0.00000  -0.00584  -0.00005   0.00000   0.00000
   3        2PX         0.00000  -0.00348  -0.00002   0.00000   0.00000
   4        2PY         0.00000   0.00179   0.00010   0.00000   0.00000
   5        2PZ         0.00000  -0.00170   0.00004   0.00000   0.00000
   6 2   C  1S         -0.00004  -0.01711  -0.01935  -0.00001   0.00049
   7        2S         -0.00001  -0.00807  -0.00799   0.00000   0.00001
   8        2PX         0.00001  -0.00163   0.00177   0.00000  -0.00001
   9        2PY         0.00001  -0.00513   0.00318   0.00000  -0.00004
  10        2PZ         0.00000   0.00225   0.00417   0.00000   0.00000
  11 3   C  1S          0.00085  -0.01582   0.99063   0.00037   0.00053
[...]
 **** Fit      -0.004100
 **** Fit      -0.004209
 **** Fit      -0.004268
 **** Fit      -0.003936
 **** Fit      -0.003139
 **** Fit      -0.003282
 **** Fit      -0.003479
 **** Fit      -0.003136
 **** Fit      -0.002597
 **** Fit      -0.001757
 **** Fit      -0.001449
 **** Fit      -0.001244
 **** Fit      -0.001080
 **** Fit      -0.002496
 **** Fit      -0.002076
 **** Fit      -0.001522
 **** Fit      -0.001008
 **** Fit      -0.000612
 **** Fit      -0.000332
 **** Fit      -0.000128
 **** Fit       0.000053
 **** Fit       0.000266
 **** Fit       0.000567
 **** Fit       0.001000
 **** Fit       0.001578
 **** Fit      -0.002679
 **** Fit      -0.002265
 **** Fit      -0.002052
 **** Fit      -0.001860
 **** Fit      -0.001533
 **** Fit      -0.001064
 **** Fit      -0.000552
 **** Fit      -0.000094
 **** Fit       0.000267
 **** Fit       0.000534
 **** Fit       0.000740
 **** Fit       0.000926
 **** Fit       0.001130
 **** Fit       0.001377
 **** Fit       0.001666
 **** Fit       0.001937
 **** Fit       0.002049
 **** Fit      -0.000590
 **** Fit      -0.001557
 **** Fit      -0.002390
 **** Fit      -0.003028
 **** Fit      -0.003448
 **** Fit      -0.003642
 **** Fit      -0.003611
 **** Fit      -0.003366
 **** Fit      -0.002955
 **** Fit      -0.002467
 **** Fit      -0.002004
 **** Fit      -0.001608
 **** Fit      -0.001223
 **** Fit      -0.000778
 **** Fit      -0.000271
 **** Fit       0.000231
 **** Fit       0.000664
 **** Fit       0.001001
 **** Fit       0.001253
 **** Fit       0.001450
 **** Fit       0.001623
 **** Fit       0.001784
 **** Fit       0.001911
 **** Fit       0.001930
 **** Fit       0.001726
 **** Fit       0.001206
 **** Fit       0.000388
 **** Fit      -0.000015
 **** Fit      -0.000811
 **** Fit      -0.001498
 **** Fit      -0.002002
 **** Fit      -0.002292
 **** Fit      -0.002359
 **** Fit      -0.002220
 **** Fit      -0.001921
 **** Fit      -0.001531
 **** Fit      -0.001106
 **** Fit      -0.000655
 **** Fit      -0.000165
 **** Fit       0.000348
 **** Fit       0.000831
 **** Fit       0.001233
 **** Fit       0.001538
 **** Fit       0.001758
 **** Fit       0.001910
 **** Fit       0.001996
 **** Fit       0.001987
 **** Fit       0.001814
 **** Fit       0.001411
 **** Fit       0.000772
 **** Fit       0.000463
 **** Fit      -0.000220
 **** Fit      -0.000781
 **** Fit      -0.001133
 **** Fit      -0.001243
 **** Fit      -0.001125
 **** Fit      -0.000832
 **** Fit      -0.000426
 **** Fit       0.000053
 **** Fit       0.000570
 **** Fit       0.001068
 **** Fit       0.001486
 **** Fit       0.001789
 **** Fit       0.001972
 **** Fit       0.002032
 **** Fit       0.001939
 **** Fit       0.001645
 **** Fit       0.001131
 **** Fit       0.000827
 **** Fit       0.000215
 **** Fit      -0.000189
 **** Fit      -0.000273
 **** Fit      -0.000054
 **** Fit       0.000378
 **** Fit       0.000909
 **** Fit       0.001410
 **** Fit       0.001766
 **** Fit       0.001912
 **** Fit       0.001808
 **** Fit       0.001425
 **** Fit       0.001061
 **** Fit       0.000575
 **** Fit       0.000618
 **** Fit       0.001106
 **** Fit       0.001554
 **** Fit       0.001552
 **** Fit       0.001156
 **** Fit       0.001050
 **** Fit       0.001858
 **** Fit       0.002429
 **** Fit       0.002737
 **** Fit       0.000049
 **** Fit       0.001015
 **** Fit       0.001772
 **** Fit       0.002311
 **** Fit       0.002618
 **** Fit       0.002669
 **** Fit       0.002436
 **** Fit       0.001879
 **** Fit       0.000811
 **** Fit       0.000164
 **** Fit       0.001081
 **** Fit       0.001814
 **** Fit       0.002355
 **** Fit       0.002695
 **** Fit       0.002820
 **** Fit       0.002714
 **** Fit       0.002357
 **** Fit       0.001730
 **** Fit       0.000857
 **** Fit      -0.000290
 **** Fit       0.000052
 **** Fit       0.000977
 **** Fit       0.001738
 **** Fit       0.002331
 **** Fit       0.002745
 **** Fit       0.002971
 **** Fit       0.002996
 **** Fit       0.002809
 **** Fit       0.002398
 **** Fit       0.001750
 **** Fit       0.000972
 **** Fit      -0.000143
 **** Fit      -0.001485
 **** Fit      -0.000661
 **** Fit       0.000375
 **** Fit       0.001259
 **** Fit       0.001988
 **** Fit       0.002552
 **** Fit       0.002941
 **** Fit       0.003142
 **** Fit       0.003144
 **** Fit       0.002936
 **** Fit       0.002509
 **** Fit       0.001856
 **** Fit       0.001093
 **** Fit      -0.000002
 **** Fit      -0.001309
 **** Fit       0.000393
 **** Fit       0.001271
 **** Fit       0.002008
 **** Fit       0.002588
 **** Fit       0.002995
 **** Fit       0.003214
 **** Fit       0.003230
 **** Fit       0.003032
 **** Fit       0.002612
 **** Fit       0.001966
 **** Fit       0.001185
 **** Fit       0.000136
 **** Fit      -0.001105
 **** Fit       0.000445
 **** Fit       0.001252
 **** Fit       0.001959
 **** Fit       0.002533
 **** Fit       0.002949
 **** Fit       0.003183
 **** Fit       0.003218
 **** Fit       0.003041
 **** Fit       0.002644
 **** Fit       0.002024
 **** Fit       0.001232
 **** Fit       0.000183
 **** Fit      -0.001053
 **** Fit       0.000866
 **** Fit       0.001534
 **** Fit       0.002152
 **** Fit       0.002650
 **** Fit       0.002979
 **** Fit       0.003103
 **** Fit       0.002999
 **** Fit       0.002654
 **** Fit       0.002062
 **** Fit       0.001236
 **** Fit       0.000221
 **** Fit      -0.000955
 **** Fit       0.001339
 **** Fit       0.001772
 **** Fit       0.002252
 **** Fit       0.002641
 **** Fit       0.002855
 **** Fit       0.002840
 **** Fit       0.002569
 **** Fit       0.002030
 **** Fit       0.001213
 **** Fit       0.000234
 **** Fit      -0.000845
 **** Fit       0.001902
 **** Fit       0.002178
 **** Fit       0.002462
 **** Fit       0.002576
 **** Fit       0.002424
 **** Fit       0.001966
 **** Fit       0.001199
 **** Fit       0.000269
 **** Fit       0.002097
 **** Fit       0.002196
 **** Fit       0.002217
 **** Fit       0.001902
 **** Fit       0.001254
 **** Fit       0.000633
 **** Fit       0.001971
 **** Fit       0.001833
 **** Fit       0.001479
 **** Fit       0.003545
 **** Fit       0.003608
 **** Fit       0.002809
 **** Fit       0.003249
 **** Fit       0.003613
 **** Fit       0.003595
 **** Fit       0.001904
 **** Fit       0.002566
 **** Fit       0.003195
 **** Fit       0.003549
 **** Fit       0.003574
 **** Fit       0.003321
 **** Fit       0.003134
 **** Fit       0.000935
 **** Fit       0.001800
 **** Fit       0.002612
 **** Fit       0.003236
 **** Fit       0.003605
 **** Fit       0.003704
 **** Fit       0.003482
 **** Fit       0.003074
 **** Fit       0.002617
 **** Fit       0.002266
 **** Fit       0.000675
 **** Fit       0.001683
 **** Fit       0.002543
 **** Fit       0.003201
 **** Fit       0.003625
 **** Fit       0.003803
 **** Fit       0.003745
 **** Fit       0.003322
 **** Fit       0.002798
 **** Fit       0.002168
 **** Fit       0.001513
 **** Fit       0.000248
 **** Fit       0.001355
 **** Fit       0.002289
 **** Fit       0.003021
 **** Fit       0.003531
 **** Fit       0.003809
 **** Fit       0.003858
 **** Fit       0.003688
 **** Fit       0.003081
 **** Fit       0.002481
 **** Fit       0.001751
 **** Fit       0.000931
 **** Fit       0.000073
 **** Fit      -0.000135
 **** Fit       0.001018
 **** Fit       0.001990
 **** Fit       0.002768
 **** Fit       0.003338
 **** Fit       0.003697
 **** Fit       0.003843
 **** Fit       0.003781
 **** Fit       0.003521
 **** Fit       0.002749
 **** Fit       0.002061
 **** Fit       0.001221
 **** Fit       0.000254
 **** Fit       0.000046
 **** Fit       0.001193
 **** Fit       0.002134
 **** Fit       0.002860
 **** Fit       0.003369
 **** Fit       0.003660
 **** Fit       0.003735
 **** Fit       0.003601
 **** Fit       0.003268
 **** Fit       0.002327
 **** Fit       0.001572
 **** Fit       0.000658
 **** Fit      -0.000405
 **** Fit       0.000260
 **** Fit       0.001356
 **** Fit       0.002230
 **** Fit       0.002879
 **** Fit       0.003307
 **** Fit       0.003516
 **** Fit       0.003515
 **** Fit       0.003310
 **** Fit       0.002911
 **** Fit       0.001821
 **** Fit       0.000993
 **** Fit      -0.000004
 **** Fit      -0.001163
 **** Fit       0.000195
 **** Fit       0.001295
 **** Fit       0.002146
 **** Fit       0.002755
 **** Fit       0.003128
 **** Fit       0.003277
 **** Fit       0.003211
 **** Fit       0.002940
 **** Fit       0.002473
 **** Fit       0.001246
 **** Fit       0.000298
 **** Fit      -0.000837
 **** Fit       0.000838
 **** Fit       0.001807
 **** Fit       0.002476
 **** Fit       0.002866
 **** Fit       0.002997
 **** Fit       0.002887
 **** Fit       0.002549
 **** Fit       0.001999
 **** Fit       0.000627
 **** Fit      -0.000480
 **** Fit       0.002210
 **** Fit       0.002654
 **** Fit       0.002775
 **** Fit       0.002608
 **** Fit       0.002183
 **** Fit       0.001518
 **** Fit       0.000008
 **** Fit       0.002771
 **** Fit       0.002482
 **** Fit       0.001906
 **** Fit       0.001076
 **** Fit       0.007306
 **** Fit       0.006623
 **** Fit       0.006661
 **** Fit       0.005276
 **** Fit       0.005301
 **** Fit       0.005650
 **** Fit       0.006121
 **** Fit       0.005922
 **** Fit       0.006332
 **** Fit       0.003751
 **** Fit       0.003935
 **** Fit       0.004312
 **** Fit       0.004780
 **** Fit       0.005226
 **** Fit       0.005592
 **** Fit       0.005117
 **** Fit       0.005284
 **** Fit       0.005577
 **** Fit       0.002059
 **** Fit       0.002335
 **** Fit       0.002755
 **** Fit       0.003297
 **** Fit       0.003885
 **** Fit       0.004404
 **** Fit       0.004769
 **** Fit       0.004980
 **** Fit       0.004253
 **** Fit       0.004204
 **** Fit       0.004246
 **** Fit       0.004422
 **** Fit       0.000082
 **** Fit       0.000433
 **** Fit       0.000861
 **** Fit       0.001421
 **** Fit       0.002119
 **** Fit       0.002888
 **** Fit       0.003592
 **** Fit       0.004087
 **** Fit       0.004310
 **** Fit       0.004325
 **** Fit       0.003327
 **** Fit       0.003062
 **** Fit       0.002893
 **** Fit       0.002825
 **** Fit       0.002845
 **** Fit       0.002832
 **** Fit       0.003596
 **** Fit       0.003953
 **** Fit       0.003915
 **** Fit       0.003648
 **** Fit       0.002319
 **** Fit       0.001803
 **** Fit       0.001441
 **** Fit       0.001197
 **** Fit       0.001019
 **** Fit       0.000847
 **** Fit       0.002986
 **** Fit      -0.000849
 **** Fit      -0.001172
 **** Fit      -0.001615
 **** Fit      -0.005164
 **** Fit      -0.004591
 **** Fit      -0.004458
 **** Fit      -0.004643
 **** Fit      -0.004791
 **** Fit      -0.006122
 **** Fit      -0.004835
 **** Fit      -0.006894
 **** Fit      -0.007356
 **** Fit      -0.008237
 **** Fit       0.006125
 **** Fit       0.007751
 **** Fit       0.009663
 **** Fit       0.003731
 **** Fit       0.005012
 **** Fit       0.006284
 **** Fit       0.007717
 **** Fit       0.009429
 **** Fit       0.011418
 **** Fit       0.013519
 **** Fit       0.001957
 **** Fit       0.003162
 **** Fit       0.004220
 **** Fit       0.005279
 **** Fit       0.006483
 **** Fit       0.007967
 **** Fit       0.009816
 **** Fit       0.012003
 **** Fit       0.014324
 **** Fit       0.016455
 **** Fit      -0.000950
 **** Fit       0.000558
 **** Fit       0.001708
 **** Fit       0.002653
 **** Fit       0.003517
 **** Fit       0.004423
 **** Fit       0.005502
 **** Fit       0.006898
 **** Fit       0.008748
 **** Fit       0.011127
 **** Fit       0.013944
 **** Fit      -0.002040
 **** Fit      -0.000651
 **** Fit       0.000398
 **** Fit       0.001230
 **** Fit       0.001940
 **** Fit       0.002617
 **** Fit       0.003361
 **** Fit       0.004292
 **** Fit       0.005559
 **** Fit       0.007339
 **** Fit       0.009808
 **** Fit       0.013056
 **** Fit      -0.004480
 **** Fit      -0.002807
 **** Fit      -0.001578
 **** Fit      -0.000657
 **** Fit       0.000052
 **** Fit       0.000629
 **** Fit       0.001146
 **** Fit       0.001687
 **** Fit       0.002359
 **** Fit       0.003312
 **** Fit       0.004754
 **** Fit       0.006961
 **** Fit      -0.004758
 **** Fit      -0.003419
 **** Fit      -0.002427
 **** Fit      -0.001690
 **** Fit      -0.001140
 **** Fit      -0.000722
 **** Fit      -0.000384
 **** Fit      -0.000065
 **** Fit       0.000319
 **** Fit       0.000890
 **** Fit       0.001837
 **** Fit       0.003449
 **** Fit      -0.003874
 **** Fit      -0.003173
 **** Fit      -0.002668
 **** Fit      -0.002319
 **** Fit      -0.002093
 **** Fit      -0.001961
 **** Fit      -0.001879
 **** Fit      -0.001788
 **** Fit      -0.001587
 **** Fit      -0.001108
 **** Fit      -0.003638
 **** Fit      -0.003556
 **** Fit      -0.003595
 **** Fit      -0.003744
 **** Fit      -0.003985
 **** Fit      -0.004271
 **** Fit      -0.004513
 **** Fit      -0.006827
 **** Fit      -0.005659
 **** Fit      -0.006142
 **** Fit      -0.005369
 **** Fit      -0.004916
 **** Fit      -0.004759
 **** Fit      -0.005574
 **** Fit      -0.005125
 **** Fit      -0.004939
 **** Fit      -0.005030
 **** Fit      -0.005404
 **** Fit      -0.006250
 **** Fit      -0.005198
 **** Fit      -0.005018
 **** Fit      -0.005079
 **** Fit      -0.005419
 **** Fit      -0.006072
 **** Fit      -0.007086
 **** Fit      -0.005547
 **** Fit      -0.005084
 **** Fit      -0.005146
 **** Fit      -0.005447
 **** Fit      -0.006052
 **** Fit      -0.007020
 **** Fit      -0.008434
 **** Fit      -0.005203
 **** Fit      -0.005162
 **** Fit      -0.005303
 **** Fit      -0.005574
 **** Fit      -0.006097
 **** Fit      -0.006955
 **** Fit      -0.008233
 **** Fit      -0.010047
 **** Fit      -0.012586
 **** Fit      -0.004592
 **** Fit      -0.005013
 **** Fit      -0.005172
 **** Fit      -0.005928
 **** Fit      -0.006404
 **** Fit      -0.007213
 **** Fit      -0.008470
 **** Fit      -0.010305
 **** Fit      -0.012911
 **** Fit      -0.005157
 **** Fit      -0.005441
 **** Fit      -0.005657
 **** Fit      -0.007036
 **** Fit      -0.007699
 **** Fit      -0.008831
 **** Fit      -0.010577
 **** Fit      -0.013122
 **** Fit      -0.016727
 **** Fit      -0.007839
 **** Fit      -0.006906
 **** Fit      -0.006655
 **** Fit      -0.006718
 **** Fit      -0.008716
 **** Fit      -0.009605
 **** Fit      -0.011256
 **** Fit      -0.013856
 **** Fit      -0.017634
 **** Fit      -0.010236
 **** Fit      -0.008876
 **** Fit      -0.008468
 **** Fit      -0.011074
 **** Fit      -0.012398
 **** Fit      -0.015206
 **** Fit      -0.019574
 **** Fit      -0.012887
 **** Fit      -0.011155
 **** Fit      -0.014255
 **** Fit      -0.016727
 **** Fit      -0.021561
 **** Fit      -0.024061
 **** Fit      -0.020510
 **** Fit      -0.015614
 **** Fit      -0.018475
 **** Fit       0.009312
 **** Fit       0.006431
 **** Fit       0.006676
 **** Fit       0.009440
 **** Fit       0.011714
 **** Fit       0.011632
 **** Fit       0.009136
 **** Fit       0.006453
 **** Fit       0.009492
 **** Fit       0.012040
 **** Fit       0.013706
 **** Fit       0.014289
 **** Fit       0.013677
 **** Fit       0.011841
 **** Fit       0.008954
 **** Fit       0.006462
 **** Fit       0.009449
 **** Fit       0.011985
 **** Fit       0.013965
 **** Fit       0.015342
 **** Fit       0.016081
 **** Fit       0.016144
 **** Fit       0.015483
 **** Fit       0.014051
 **** Fit       0.011817
 **** Fit       0.008824
 **** Fit       0.007334
 **** Fit       0.010218
 **** Fit       0.012640
 **** Fit       0.014595
 **** Fit       0.016091
 **** Fit       0.017130
 **** Fit       0.017704
 **** Fit       0.017789
 **** Fit       0.017352
 **** Fit       0.016350
 **** Fit       0.014725
 **** Fit       0.012419
 **** Fit       0.009395
 **** Fit       0.009070
 **** Fit       0.011725
 **** Fit       0.013934
 **** Fit       0.015734
 **** Fit       0.017151
 **** Fit       0.018200
 **** Fit       0.018879
 **** Fit       0.019174
 **** Fit       0.019062
 **** Fit       0.018511
 **** Fit       0.017479
 **** Fit       0.015905
 **** Fit       0.013707
 **** Fit       0.010796
 **** Fit       0.007762
 **** Fit       0.010594
 **** Fit       0.012980
 **** Fit       0.014976
 **** Fit       0.016630
 **** Fit       0.017973
 **** Fit       0.019023
 **** Fit       0.019780
 **** Fit       0.020232
 **** Fit       0.020362
 **** Fit       0.020148
 **** Fit       0.019564
 **** Fit       0.018577
 **** Fit       0.017128
 **** Fit       0.015130
 **** Fit       0.008417
 **** Fit       0.011218
 **** Fit       0.013562
 **** Fit       0.015528
 **** Fit       0.017176
 **** Fit       0.018548
 **** Fit       0.019664
 **** Fit       0.020521
 **** Fit       0.021105
 **** Fit       0.021391
 **** Fit       0.021359
 **** Fit       0.020995
 **** Fit       0.020281
 **** Fit       0.019182
 **** Fit       0.017628
 **** Fit       0.015492
 **** Fit       0.009125
 **** Fit       0.011805
 **** Fit       0.014044
 **** Fit       0.015936
 **** Fit       0.017553
 **** Fit       0.018944
 **** Fit       0.020128
 **** Fit       0.021099
 **** Fit       0.021828
 **** Fit       0.022279
 **** Fit       0.022427
 **** Fit       0.022265
 **** Fit       0.021800
 **** Fit       0.021035
 **** Fit       0.019947
 **** Fit       0.010851
 **** Fit       0.013221
 **** Fit       0.015212
 **** Fit       0.016931
 **** Fit       0.018458
 **** Fit       0.019838
 **** Fit       0.021072
 **** Fit       0.022118
 **** Fit       0.022908
 **** Fit       0.023379
 **** Fit       0.023509
 **** Fit       0.023322
 **** Fit       0.022874
 **** Fit       0.011922
 **** Fit       0.014094
 **** Fit       0.015936
 **** Fit       0.017604
 **** Fit       0.019208
 -----------------------------------------------------------------
 Leave Link  602 at Sun Oct  9 22:03:05 2022, MaxMem= 1610612736 cpu:       9.7
 (Enter /dataV/g09/l9999.exe)

 Test job not archived.
 1\1\GINC-A869AA4EB327\SP\RB3LYP\STO-3G\C21H23N1O3\ROOT\09-Oct-2022\0\\
 #p b3lyp/sto-3g gfinput iop(6/7=3) density guess=Read iop(6/50=1) iop(
 6/33=2) iop(6/42=6) pop=mk test units=(ang,deg)\\Title Card Required\\
 0,1\O,0,-3.717,-3.364,0.872\C,0,-2.486,-1.271,0.908\C,0,-1.149,-2.019,
 1.081\C,0,0.737,-0.836,2.554\C,0,1.488,0.455,2.549\C,0,1.703,0.792,4.0
 54\C,0,1.915,-0.53,4.87\N,0,2.695,-1.411,4.054\C,0,1.777,-1.933,2.99\C
 ,0,-2.24,0.028,0.117\C,0,-3.053,1.15,0.342\C,0,-2.828,2.332,-0.379\C,0
 ,-1.791,2.392,-1.319\C,0,-0.978,1.273,-1.541\C,0,0.167,1.346,-2.571\C,
 0,0.981,0.226,-2.803\C,0,2.016,0.295,-3.747\C,0,2.241,1.483,-4.457\C,0
 ,1.431,2.605,-4.22\C,0,0.393,2.536,-3.275\C,0,-1.202,0.087,-0.827\C,0,
 -3.489,-2.156,0.139\C,0,0.166,-1.218,1.177\O,0,-1.129,-3.276,1.144\O,0
 ,0.555,1.439,4.634\H,0,-4.077,-3.151,1.737\H,0,-2.892,-1.035,1.872\H,0
 ,-0.069,-0.737,3.258\H,0,0.97,1.269,2.078\H,0,2.414,0.281,2.029\H,0,2.
 552,1.448,4.102\H,0,0.984,-1.022,5.061\H,0,2.385,-0.293,5.804\H,0,3.45
 ,-0.868,3.672\H,0,1.216,-2.78,3.34\H,0,2.4,-2.224,2.165\H,0,-3.842,1.1
 06,1.06\H,0,-3.448,3.189,-0.21\H,0,-1.622,3.295,-1.868\H,0,0.813,-0.68
 1,-2.261\H,0,2.639,-0.561,-3.927\H,0,3.03,1.532,-5.179\H,0,1.605,3.514
 ,-4.76\H,0,-0.227,3.391,-3.092\H,0,-0.583,-0.77,-1.003\H,0,-4.414,-1.6
 29,0.025\H,0,-3.091,-2.393,-0.823\H,0,0.718,1.636,5.558\\Version=EM64L
 -G09RevA.01\State=1-A\HF=-1080.4762013\RMSD=6.281e-09\Dipole=0.3723251
 ,1.2887541,1.0053213\Quadrupole=4.4942893,-11.4897906,6.9955013,-0.970
 3257,-1.9315263,1.550305\PG=C01 [X(C21H23N1O3)]\\@


 WE THE UNWILLING
 LED BY THE UNQUALIFIED
 HAVE BEEN DOING THE UNBELIEVABLE SO LONG WITH SO LITTLE
 THAT WE NOW ATTEMPT THE IMPOSSIBLE WITH NOTHING.

                                    -- ANONYMOUS
 Job cpu time:  0 days  0 hours  1 minutes 40.7 seconds.
 File lengths (MBytes):  RWF=     15 Int=      0 D2E=      0 Chk=      4 Scr=      1
 Normal termination of Gaussian 09 at Sun Oct  9 22:03:05 2022.
