 Entering Gaussian System, Link 0=g09
 Input=compuesto1_2.gjf
 Output=compuesto1_2.log
 Initial command:
 /dataV/g09/l1.exe /tmp/Gau-3873.inp -scrdir=/tmp/
 Entering Link 1 = /dataV/g09/l1.exe PID=      3875.
  
 Copyright (c) 1988,1990,1992,1993,1995,1998,2003,2009, Gaussian, Inc.
                  All Rights Reserved.
  
 This is part of the Gaussian(R) 09 program.  It is based on
 the Gaussian(R) 03 system (copyright 2003, Gaussian, Inc.),
 the Gaussian(R) 98 system (copyright 1998, Gaussian, Inc.),
 the Gaussian(R) 94 system (copyright 1995, Gaussian, Inc.),
 the Gaussian 92(TM) system (copyright 1992, Gaussian, Inc.),
 the Gaussian 90(TM) system (copyright 1990, Gaussian, Inc.),
 the Gaussian 88(TM) system (copyright 1988, Gaussian, Inc.),
 the Gaussian 86(TM) system (copyright 1986, Carnegie Mellon
 University), and the Gaussian 82(TM) system (copyright 1983,
 Carnegie Mellon University). Gaussian is a federally registered
 trademark of Gaussian, Inc.
  
 This software contains proprietary and confidential information,
 including trade secrets, belonging to Gaussian, Inc.
  
 This software is provided under written license and may be
 used, copied, transmitted, or stored only in accord with that
 written license.
  
 The following legend is applicable only to US Government
 contracts under FAR:
  
                    RESTRICTED RIGHTS LEGEND
  
 Use, reproduction and disclosure by the US Government is
 subject to restrictions as set forth in subparagraphs (a)
 and (c) of the Commercial Computer Software - Restricted
 Rights clause in FAR 52.227-19.
  
 Gaussian, Inc.
 340 Quinnipiac St., Bldg. 40, Wallingford CT 06492
  
  
 ---------------------------------------------------------------
 Warning -- This program may not be used in any manner that
 competes with the business of Gaussian, Inc. or will provide
 assistance to any competitor of Gaussian, Inc.  The licensee
 of this program is prohibited from giving any competitor of
 Gaussian, Inc. access to this program.  By using this program,
 the user acknowledges that Gaussian, Inc. is engaged in the
 business of creating and licensing software in the field of
 computational chemistry and represents and warrants to the
 licensee that it is not a competitor of Gaussian, Inc. and that
 it will not use this program in any manner prohibited above.
 ---------------------------------------------------------------
  

 Cite this work as:
 Gaussian 09, Revision A.01,
 M. J. Frisch, G. W. Trucks, H. B. Schlegel, G. E. Scuseria, 
 M. A. Robb, J. R. Cheeseman, G. Scalmani, V. Barone, B. Mennucci, 
 G. A. Petersson, H. Nakatsuji, M. Caricato, X. Li, H. P. Hratchian, 
 A. F. Izmaylov, J. Bloino, G. Zheng, J. L. Sonnenberg, M. Hada, 
 M. Ehara, K. Toyota, R. Fukuda, J. Hasegawa, M. Ishida, T. Nakajima, 
 Y. Honda, O. Kitao, H. Nakai, T. Vreven, J. A. Montgomery, Jr., 
 J. E. Peralta, F. Ogliaro, M. Bearpark, J. J. Heyd, E. Brothers, 
 K. N. Kudin, V. N. Staroverov, R. Kobayashi, J. Normand, 
 K. Raghavachari, A. Rendell, J. C. Burant, S. S. Iyengar, J. Tomasi, 
 M. Cossi, N. Rega, J. M. Millam, M. Klene, J. E. Knox, J. B. Cross, 
 V. Bakken, C. Adamo, J. Jaramillo, R. Gomperts, R. E. Stratmann, 
 O. Yazyev, A. J. Austin, R. Cammi, C. Pomelli, J. W. Ochterski, 
 R. L. Martin, K. Morokuma, V. G. Zakrzewski, G. A. Voth, 
 P. Salvador, J. J. Dannenberg, S. Dapprich, A. D. Daniels, 
 O. Farkas, J. B. Foresman, J. V. Ortiz, J. Cioslowski, 
 and D. J. Fox, Gaussian, Inc., Wallingford CT, 2009.
 
 ******************************************
 Gaussian 09:  EM64L-G09RevA.01  8-May-2009
                 9-Oct-2022 
 ******************************************
 %nprocshared=3
 Will use up to    3 processors via shared memory.
 %mem=12GB
 %chk=compuesto1_2.chk
 ----------------------------------------------------------------------
 #p b3lyp/6-311g gfinput iop(6/7=3) density guess=Read iop(6/50=1) iop(
 6/33=2) iop(6/42=6) pop=mk test units=(ang,deg)
 ----------------------------------------------------------------------
 1/30=1,38=1/1;
 2/12=2,17=6,18=5,40=1/2;
 3/5=4,6=6,11=2,16=1,24=10,25=1,30=1,74=-5,116=-2/1,2,3;
 4/5=1/1;
 5/5=2,38=6/2;
 6/7=3,8=2,9=2,10=2,15=8,20=1,22=-1,28=1,33=2,42=6,50=1/1,2;
 99/5=1,9=1/99;
 Leave Link    1 at Sun Oct  9 18:13:34 2022, MaxMem= 1610612736 cpu:       0.1
 (Enter /dataV/g09/l101.exe)
 -------------------
 Title Card Required
 -------------------
 Symbolic Z-matrix:
 Charge =  0 Multiplicity = 1
 O(PDBName=O1,ResName=UNL,ResNum=1) -3.675    -1.584     0.721 
 C(PDBName=C1,ResName=UNL,ResNum=1) -2.858    -0.5       1.167 
 C(PDBName=C2,ResName=UNL,ResNum=1) -1.587    -1.057     1.835 
 O(PDBName=O2,ResName=UNL,ResNum=1) -0.769     0.028     2.282 
 C(PDBName=C3,ResName=UNL,ResNum=1)  0.41     -0.489     2.905 
 C(PDBName=C4,ResName=UNL,ResNum=1)  1.341     0.567     3.386 
 C(PDBName=C5,ResName=UNL,ResNum=1)  2.372    -0.176     4.279 
 C(PDBName=C6,ResName=UNL,ResNum=1)  2.629    -1.604     3.704 
 N(PDBName=N1,ResName=UNL,ResNum=1)  2.648    -1.492     2.283 
 C(PDBName=C7,ResName=UNL,ResNum=1)  1.223    -1.314     1.849 
 C(PDBName=C8,ResName=UNL,ResNum=1) -2.464     0.376    -0.037 
 C(PDBName=C9,ResName=UNL,ResNum=1) -3.276     1.453    -0.415 
 C(PDBName=C10,ResName=UNL,ResNum=1) -2.919     2.249    -1.512 
 C(PDBName=C11,ResName=UNL,ResNum=1) -1.748     1.969    -2.229 
 C(PDBName=C12,ResName=UNL,ResNum=1) -0.935     0.892    -1.851 
 C(PDBName=C13,ResName=UNL,ResNum=1)  0.351     0.584    -2.639 
 C(PDBName=C14,ResName=UNL,ResNum=1)  1.164    -0.493    -2.261 
 C(PDBName=C15,ResName=UNL,ResNum=1)  2.335    -0.773    -2.979 
 C(PDBName=C16,ResName=UNL,ResNum=1)  2.692     0.024    -4.076 
 C(PDBName=C17,ResName=UNL,ResNum=1)  1.878     1.1      -4.454 
 C(PDBName=C18,ResName=UNL,ResNum=1)  0.708     1.381    -3.736 
 C(PDBName=C19,ResName=UNL,ResNum=1) -1.293     0.096    -0.754 
 H(PDBName=H1,ResName=UNL,ResNum=1) -3.921    -2.13      1.471 
 H(PDBName=H2,ResName=UNL,ResNum=1) -3.402     0.09      1.874 
 H(PDBName=H3,ResName=UNL,ResNum=1) -1.861    -1.665     2.672 
 H(PDBName=H4,ResName=UNL,ResNum=1) -1.042    -1.647     1.129 
 H(PDBName=H5,ResName=UNL,ResNum=1)  0.125    -1.081     3.75 
 H(PDBName=H6,ResName=UNL,ResNum=1)  0.874     1.34      3.959 
 H(PDBName=H7,ResName=UNL,ResNum=1)  1.795     1.003     2.52 
 H(PDBName=H8,ResName=UNL,ResNum=1)  2.01     -0.318     5.276 
 H(PDBName=H9,ResName=UNL,ResNum=1)  3.256     0.426     4.3 
 H(PDBName=H10,ResName=UNL,ResNum=1)  1.832    -2.273     3.955 
 H(PDBName=H11,ResName=UNL,ResNum=1)  3.546    -1.98      4.107 
 H(PDBName=H12,ResName=UNL,ResNum=1)  3.218    -0.7       2.061 
 H(PDBName=H13,ResName=UNL,ResNum=1)  0.724    -2.254     1.739 
 H(PDBName=H14,ResName=UNL,ResNum=1)  1.256    -0.81      0.906 
 H(PDBName=H15,ResName=UNL,ResNum=1) -4.17      1.668     0.133 
 H(PDBName=H16,ResName=UNL,ResNum=1) -3.54      3.072    -1.801 
 H(PDBName=H17,ResName=UNL,ResNum=1) -1.475     2.576    -3.067 
 H(PDBName=H18,ResName=UNL,ResNum=1)  0.892    -1.101    -1.424 
 H(PDBName=H19,ResName=UNL,ResNum=1)  2.956    -1.595    -2.69 
 H(PDBName=H20,ResName=UNL,ResNum=1)  3.585    -0.19     -4.624 
 H(PDBName=H21,ResName=UNL,ResNum=1)  2.151     1.708    -5.291 
 H(PDBName=H22,ResName=UNL,ResNum=1)  0.087     2.203    -4.025 
 H(PDBName=H23,ResName=UNL,ResNum=1) -0.672    -0.726    -0.465 
 
 NAtoms=     45 NQM=     45 NQMF=      0 NMic=      0 NMicF=      0 NTot=     45.
                    Isotopes and Nuclear Properties:
 (Nuclear quadrupole moments (NQMom) in fm**2, nuclear magnetic moments (NMagM)
  in nuclear magnetons)

  Atom         1           2           3           4           5           6           7           8           9          10
 IAtWgt=          16          12          12          16          12          12          12          12          14          12
 AtmWgt=  15.9949146  12.0000000  12.0000000  15.9949146  12.0000000  12.0000000  12.0000000  12.0000000  14.0030740  12.0000000
 NucSpn=           0           0           0           0           0           0           0           0           2           0
 AtZEff=   0.0000000   0.0000000   0.0000000   0.0000000   0.0000000   0.0000000   0.0000000   0.0000000   0.0000000   0.0000000
 NQMom=    0.0000000   0.0000000   0.0000000   0.0000000   0.0000000   0.0000000   0.0000000   0.0000000   2.0440000   0.0000000
 NMagM=    0.0000000   0.0000000   0.0000000   0.0000000   0.0000000   0.0000000   0.0000000   0.0000000   0.4037610   0.0000000

  Atom        11          12          13          14          15          16          17          18          19          20
 IAtWgt=          12          12          12          12          12          12          12          12          12          12
 AtmWgt=  12.0000000  12.0000000  12.0000000  12.0000000  12.0000000  12.0000000  12.0000000  12.0000000  12.0000000  12.0000000
 NucSpn=           0           0           0           0           0           0           0           0           0           0
 AtZEff=   0.0000000   0.0000000   0.0000000   0.0000000   0.0000000   0.0000000   0.0000000   0.0000000   0.0000000   0.0000000
 NQMom=    0.0000000   0.0000000   0.0000000   0.0000000   0.0000000   0.0000000   0.0000000   0.0000000   0.0000000   0.0000000
 NMagM=    0.0000000   0.0000000   0.0000000   0.0000000   0.0000000   0.0000000   0.0000000   0.0000000   0.0000000   0.0000000

  Atom        21          22          23          24          25          26          27          28          29          30
 IAtWgt=          12          12           1           1           1           1           1           1           1           1
 AtmWgt=  12.0000000  12.0000000   1.0078250   1.0078250   1.0078250   1.0078250   1.0078250   1.0078250   1.0078250   1.0078250
 NucSpn=           0           0           1           1           1           1           1           1           1           1
 AtZEff=   0.0000000   0.0000000   0.0000000   0.0000000   0.0000000   0.0000000   0.0000000   0.0000000   0.0000000   0.0000000
 NQMom=    0.0000000   0.0000000   0.0000000   0.0000000   0.0000000   0.0000000   0.0000000   0.0000000   0.0000000   0.0000000
 NMagM=    0.0000000   0.0000000   2.7928460   2.7928460   2.7928460   2.7928460   2.7928460   2.7928460   2.7928460   2.7928460

  Atom        31          32          33          34          35          36          37          38          39          40
 IAtWgt=           1           1           1           1           1           1           1           1           1           1
 AtmWgt=   1.0078250   1.0078250   1.0078250   1.0078250   1.0078250   1.0078250   1.0078250   1.0078250   1.0078250   1.0078250
 NucSpn=           1           1           1           1           1           1           1           1           1           1
 AtZEff=   0.0000000   0.0000000   0.0000000   0.0000000   0.0000000   0.0000000   0.0000000   0.0000000   0.0000000   0.0000000
 NQMom=    0.0000000   0.0000000   0.0000000   0.0000000   0.0000000   0.0000000   0.0000000   0.0000000   0.0000000   0.0000000
 NMagM=    2.7928460   2.7928460   2.7928460   2.7928460   2.7928460   2.7928460   2.7928460   2.7928460   2.7928460   2.7928460

  Atom        41          42          43          44          45
 IAtWgt=           1           1           1           1           1
 AtmWgt=   1.0078250   1.0078250   1.0078250   1.0078250   1.0078250
 NucSpn=           1           1           1           1           1
 AtZEff=   0.0000000   0.0000000   0.0000000   0.0000000   0.0000000
 NQMom=    0.0000000   0.0000000   0.0000000   0.0000000   0.0000000
 NMagM=    2.7928460   2.7928460   2.7928460   2.7928460   2.7928460
 Leave Link  101 at Sun Oct  9 18:13:34 2022, MaxMem= 1610612736 cpu:       0.2
 (Enter /dataV/g09/l202.exe)
                          Input orientation:                          
 ---------------------------------------------------------------------
 Center     Atomic      Atomic             Coordinates (Angstroms)
 Number     Number       Type             X           Y           Z
 ---------------------------------------------------------------------
      1          8           0       -3.675000   -1.584000    0.721000
      2          6           0       -2.858000   -0.500000    1.167000
      3          6           0       -1.587000   -1.057000    1.835000
      4          8           0       -0.769000    0.028000    2.282000
      5          6           0        0.410000   -0.489000    2.905000
      6          6           0        1.341000    0.567000    3.386000
      7          6           0        2.372000   -0.176000    4.279000
      8          6           0        2.629000   -1.604000    3.704000
      9          7           0        2.648000   -1.492000    2.283000
     10          6           0        1.223000   -1.314000    1.849000
     11          6           0       -2.464000    0.376000   -0.037000
     12          6           0       -3.276000    1.453000   -0.415000
     13          6           0       -2.919000    2.249000   -1.512000
     14          6           0       -1.748000    1.969000   -2.229000
     15          6           0       -0.935000    0.892000   -1.851000
     16          6           0        0.351000    0.584000   -2.639000
     17          6           0        1.164000   -0.493000   -2.261000
     18          6           0        2.335000   -0.773000   -2.979000
     19          6           0        2.692000    0.024000   -4.076000
     20          6           0        1.878000    1.100000   -4.454000
     21          6           0        0.708000    1.381000   -3.736000
     22          6           0       -1.293000    0.096000   -0.754000
     23          1           0       -3.921000   -2.130000    1.471000
     24          1           0       -3.402000    0.090000    1.874000
     25          1           0       -1.861000   -1.665000    2.672000
     26          1           0       -1.042000   -1.647000    1.129000
     27          1           0        0.125000   -1.081000    3.750000
     28          1           0        0.874000    1.340000    3.959000
     29          1           0        1.795000    1.003000    2.520000
     30          1           0        2.010000   -0.318000    5.276000
     31          1           0        3.256000    0.426000    4.300000
     32          1           0        1.832000   -2.273000    3.955000
     33          1           0        3.546000   -1.980000    4.107000
     34          1           0        3.218000   -0.700000    2.061000
     35          1           0        0.724000   -2.254000    1.739000
     36          1           0        1.256000   -0.810000    0.906000
     37          1           0       -4.170000    1.668000    0.133000
     38          1           0       -3.540000    3.072000   -1.801000
     39          1           0       -1.475000    2.576000   -3.067000
     40          1           0        0.892000   -1.101000   -1.424000
     41          1           0        2.956000   -1.595000   -2.690000
     42          1           0        3.585000   -0.190000   -4.624000
     43          1           0        2.151000    1.708000   -5.291000
     44          1           0        0.087000    2.203000   -4.025000
     45          1           0       -0.672000   -0.726000   -0.465000
 ---------------------------------------------------------------------
                    Distance matrix (angstroms):
                    1          2          3          4          5
     1  O    0.000000
     2  C    1.428797   0.000000
     3  C    2.424555   1.540102   0.000000
     4  O    3.671526   2.426094   1.430440   0.000000
     5  C    4.759843   3.701431   2.335708   1.430195   0.000000
     6  C    6.073655   4.867654   3.690008   2.441605   1.487702
     7  C    7.155979   6.094458   4.735291   3.727668   2.415634
     8  C    6.974174   6.145108   4.644031   4.028885   2.608752
     9  N    6.513727   5.704871   4.280789   3.739825   2.530126
    10  C    5.033457   4.216904   2.821763   2.440598   1.567396
    11  C    2.425425   1.540204   2.515353   2.893422   4.202793
    12  C    3.266966   2.547873   3.770321   3.948352   5.327322
    13  C    4.499968   3.838979   4.889404   4.893851   6.171610
    14  C    5.003962   4.342911   5.069388   5.007499   6.087420
    15  C    4.500373   3.839781   4.220225   4.225605   5.131834
    16  C    5.674372   5.094936   5.144453   5.077379   5.647189
    17  C    5.787791   5.284668   4.966217   4.964552   5.220736
    18  C    7.104071   6.650646   6.215894   6.160725   6.197398
    19  C    8.132377   7.652851   7.376878   7.238971   7.362408
    20  C    8.051105   7.522323   7.497359   7.316385   7.670386
    21  C    6.918581   6.347750   6.499762   6.342591   6.905692
    22  C    3.266795   2.548467   2.849345   3.081639   4.078077
    23  H    0.959756   1.969590   2.594491   3.905098   4.848381
    24  H    2.050906   1.069526   2.147407   2.665145   3.991184
    25  H    2.665250   2.148548   1.070191   2.052027   2.568016
    26  H    2.665168   2.148234   1.069374   2.051722   2.569717
    27  H    4.885473   3.988451   2.568802   2.045517   1.070380
    28  H    6.303001   5.010857   4.038998   2.689446   2.161354
    29  H    6.312675   5.073463   4.018799   2.753428   2.071838
    30  H    7.393917   6.372945   5.032396   4.099584   2.865464
    31  H    8.055315   6.932111   5.632953   4.520105   3.298934
    32  H    6.423436   5.736948   4.202692   3.854702   2.511422
    33  H    7.985277   7.200362   5.688726   5.097246   3.674559
    34  H    7.077465   6.144673   4.823541   4.058940   2.939680
    35  H    4.564693   4.029196   2.604371   2.780543   2.138546
    36  H    4.994803   4.133911   3.001116   2.587710   2.194256
    37  H    3.341597   2.736919   4.122417   4.344491   5.771744
    38  H    5.296890   4.693968   5.838094   5.797867   7.101384
    39  H    6.041071   5.413060   6.102527   5.966786   6.972247
    40  H    5.068708   4.597497   4.094931   4.215210   4.398535
    41  H    7.456890   7.062441   6.434588   6.421101   6.245749
    42  H    9.122492   8.668566   8.319853   8.166865   8.176544
    43  H    8.995759   8.465879   8.508686   8.288494   8.662119
    44  H    7.142726   6.552564   6.911547   6.726188   7.441511
    45  H    3.340774   2.737352   2.497356   2.850252   3.547364
                    6          7          8          9         10
     6  C    0.000000
     7  C    1.553209   0.000000
     8  C    2.544270   1.560724   0.000000
     9  N    2.676628   2.406667   1.425534   0.000000
    10  C    2.431965   2.918929   2.345626   1.500222   0.000000
    11  C    5.121663   6.505341   6.622245   5.916449   4.472926
    12  C    6.045601   7.522445   7.821792   7.144649   5.746563
    13  C    6.705753   8.210419   8.534200   7.706400   6.414628
    14  C    6.560164   7.995592   8.192982   7.187592   6.019553
    15  C    5.719438   7.046543   7.056213   5.967521   4.818029
    16  C    6.105818   7.247121   7.085921   5.814815   4.950246
    17  C    5.748351   6.658179   6.241936   4.883461   4.191613
    18  C    6.580035   7.282605   6.740882   5.320110   4.983855
    19  C    7.602729   8.363518   7.948758   6.537360   6.249306
    20  C    7.876424   8.839542   8.627200   7.259376   6.781167
    21  C    7.196261   8.332669   8.243426   6.945941   6.222578
    22  C    4.929442   6.231958   6.176233   5.222700   3.885095
    23  H    6.215278   7.162739   6.940134   6.649673   5.222018
    24  H    5.000972   6.260500   6.526216   6.266778   4.833473
    25  H    3.967924   4.766326   4.607477   4.529054   3.211166
    26  H    3.959108   4.872549   4.484274   3.869346   2.399899
    27  H    2.080158   2.479491   2.558449   2.947294   2.207644
    28  H    1.069555   2.155147   3.436886   3.738486   3.408463
    29  H    1.070592   2.194778   2.982258   2.647414   2.479095
    30  H    2.191549   1.070148   2.123238   3.277708   3.654547
    31  H    2.126618   1.069720   2.206637   2.848978   3.628786
    32  H    2.937761   2.189517   1.070407   2.017771   2.392864
    33  H    3.445152   2.159230   1.069894   2.090819   3.307333
    34  H    2.623746   2.431011   1.965601   1.000724   2.098086
    35  H    3.324355   3.672273   2.812961   2.139709   1.069907
    36  H    2.837914   3.608953   3.216266   2.073383   1.069745
    37  H    6.493484   7.961621   8.347720   7.816215   6.396986
    38  H    7.550110   9.081170   9.498766   8.706348   7.432743
    39  H    7.321690   8.737084   8.953304   7.884812   6.824834
    40  H    5.110766   5.964079   5.437514   4.120469   3.296583
    41  H    6.648326   7.135936   6.402363   4.983593   4.866700
    42  H    8.352765   8.985264   8.501113   7.090827   6.981558
    43  H    8.789102   9.756188   9.597284   8.237262   7.808538
    44  H    7.692329   8.935171   8.982898   7.746135   6.940004
    45  H    4.533676   5.663389   5.389624   4.377289   3.048174
                   11         12         13         14         15
    11  C    0.000000
    12  C    1.400770   0.000000
    13  C    2.427093   1.401597   0.000000
    14  C    2.802707   2.427269   1.401332   0.000000
    15  C    2.427899   2.803052   2.427473   1.401350   0.000000
    16  C    3.838996   4.342403   3.838653   2.547965   1.539352
    17  C    4.343239   5.187315   4.974983   3.813425   2.547965
    18  C    5.745082   6.558391   6.236112   4.975133   3.838946
    19  C    6.559098   7.145767   6.558052   5.187295   4.342716
    20  C    6.235947   6.557579   5.743411   4.342080   3.838208
    21  C    4.975360   5.187146   4.342203   2.940872   2.547900
    22  C    1.401332   2.426656   2.802472   2.427093   1.401852
    23  H    3.267560   4.100111   5.392396   5.934116   5.392992
    24  H    2.147920   2.667052   4.044696   4.806346   4.539264
    25  H    3.444992   4.610175   5.826201   6.102338   5.277618
    26  H    2.733893   4.121249   5.067231   4.984983   3.916423
    27  H    4.813225   5.944340   6.931340   6.968434   6.032208
    28  H    5.295239   6.030518   6.719001   6.749953   6.101581
    29  H    5.007041   5.876374   6.327032   6.003250   5.154693
    30  H    6.980421   7.966537   8.772769   8.699308   7.805847
    31  H    7.178473   8.121144   8.673713   8.369510   7.457643
    32  H    6.434973   7.685808   8.538652   8.309803   7.168204
    33  H    7.670956   8.875452   9.552687   9.152373   7.989087
    34  H    6.151789   7.275852   7.689324   7.084407   5.923311
    35  H    4.498269   5.863580   6.642097   6.299963   5.053484
    36  H    4.016746   5.235001   5.712690   5.155103   3.911308
    37  H    2.146765   1.070404   2.146762   3.396429   3.873455
    38  H    3.396747   2.147523   1.070743   2.147337   3.397194
    39  H    3.872857   3.396739   2.147112   1.070150   2.146185
    40  H    3.920208   4.991315   5.074836   4.128259   2.737208
    41  H    6.348201   7.300942   7.118964   5.919648   4.693503
    42  H    7.612577   8.215135   7.611523   6.232030   5.412084
    43  H    7.118776   7.300187   6.346528   4.964491   4.692851
    44  H    5.074414   4.990428   3.918331   2.578293   2.736692
    45  H    2.146824   3.395785   3.872447   3.395953   2.146646
                   16         17         18         19         20
    16  C    0.000000
    17  C    1.401350   0.000000
    18  C    2.427613   1.401843   0.000000
    19  C    2.803364   2.428229   1.402165   0.000000
    20  C    2.427387   2.802979   2.427468   1.401162   0.000000
    21  C    1.402165   2.428052   2.803550   2.427613   1.401208
    22  C    2.548353   2.941907   4.343751   5.188554   4.975265
    23  H    6.519807   6.516504   7.796248   8.896106   8.897580
    24  H    5.890349   6.187606   7.563699   8.517258   8.303137
    25  H    6.177189   5.904126   7.094778   8.313726   8.509126
    26  H    4.595175   4.205978   5.389218   6.620198   6.873303
    27  H    6.606256   6.128408   7.089316   8.310042   8.668067
    28  H    6.661732   6.490947   7.398320   8.342554   8.476095
    29  H    5.373637   5.049172   5.803859   6.728318   6.975168
    30  H    8.137144   7.586350   8.273915   9.383069   9.833669
    31  H    7.524208   6.947499   7.434358   8.404587   8.887389
    32  H    7.337346   6.500252   7.112198   8.397188   9.060382
    33  H    7.892442   6.959635   7.289360   8.467988   9.249829
    34  H    5.653171   4.789723   5.117286   6.201905   6.890633
    35  H    5.230703   4.392576   5.200789   6.548017   7.136826
    36  H    3.915263   3.184155   4.032225   5.251474   5.724036
    37  H    5.412807   6.233194   7.613018   8.216171   7.611931
    38  H    4.693854   5.920172   7.119504   7.300942   6.346804
    39  H    2.735969   4.127071   5.073425   4.989456   3.917264
    40  H    2.146656   1.069681   2.146592   3.396870   3.872660
    41  H    3.396567   2.147023   1.069975   2.147523   3.396587
    42  H    3.872732   3.396589   2.146722   1.069369   2.146357
    43  H    3.396539   3.872915   3.396257   2.145871   1.069936
    44  H    2.147523   3.397064   3.873525   3.396567   2.146702
    45  H    2.736586   2.578915   3.919752   4.991825   5.074337
                   21         22         23         24         25
    21  C    0.000000
    22  C    3.814125   0.000000
    23  H    7.801770   4.100254   0.000000
    24  H    7.073251   3.369614   2.315204   0.000000
    25  H    7.545882   3.893741   2.429450   2.468098   0.000000
    26  H    5.991620   2.578127   2.939200   3.023540   1.746979
    27  H    7.901995   4.866423   4.760710   4.162973   2.333953
    28  H    7.696900   5.334397   6.420519   4.918730   4.262232
    29  H    6.360974   4.591020   6.602177   5.315985   4.528539
    30  H    9.262718   6.887823   7.275859   6.405452   4.855910
    31  H    8.484199   6.807732   8.126851   7.094176   5.762495
    32  H    8.588747   6.128007   6.267991   6.108116   3.956514
    33  H    8.992398   7.166242   7.920043   7.585901   5.603044
    34  H    6.651005   5.376520   7.304678   6.669593   5.205842
    35  H    6.571842   3.975656   4.654377   4.747256   2.810629
    36  H    5.162262   3.173931   5.372425   4.841899   3.683133
    37  H    6.232689   3.396334   4.034482   2.472041   4.784025
    38  H    4.964797   3.873215   6.157268   4.734659   6.727997
    39  H    2.577028   3.396100   6.980172   5.857218   7.146412
    40  H    3.396987   2.579910   5.710064   5.543800   4.967325
    41  H    3.873525   4.966042   8.055636   8.005841   7.208289
    42  H    3.396132   6.233264   9.861676   9.545710   9.223132
    43  H    2.146440   5.919801   9.865296   9.208201   9.533239
    44  H    1.069975   4.128352   8.065046   7.171896   7.975333
    45  H    4.128352   1.069975   4.034267   3.686418   3.483707
                   26         27         28         29         30
    26  H    0.000000
    27  H    2.924361   0.000000
    28  H    4.538956   2.542818   0.000000
    29  H    4.123827   2.940214   1.741416   0.000000
    30  H    5.317758   2.542454   2.402904   3.063789   0.000000
    31  H    5.729343   3.518055   2.574024   2.373995   1.748893
    32  H    4.078974   2.092065   3.737854   3.576698   2.366168
    33  H    5.479883   3.555122   4.264257   3.805635   2.547175
    34  H    4.462402   3.544648   3.641200   2.266235   3.455635
    35  H    1.964511   2.403924   4.227024   3.516397   4.232288
    36  H    2.455830   3.072611   3.753563   2.486461   4.461780
    37  H    4.665364   6.251937   6.339385   6.459196   8.281730
    38  H    6.090473   7.841762   7.460618   7.170358   9.611375
    39  H    5.968889   7.899692   7.510671   6.661967   9.493477
    40  H    3.249043   5.230580   5.910626   4.560412   6.837617
    41  H    5.529147   7.053535   7.560301   5.936466   8.122980
    42  H    7.525223   9.104359   9.130077   7.460837  10.025318
    43  H    7.916292   9.675892   9.344980   7.850827  10.760392
    44  H    6.531528   8.440185   8.068977   6.869810   9.826595
    45  H    1.877759   4.304353   5.121547   4.240962   6.349698
                   31         32         33         34         35
    31  H    0.000000
    32  H    3.071059   0.000000
    33  H    2.431087   1.745494   0.000000
    34  H    2.506480   2.825343   2.435590   0.000000
    35  H    4.489114   2.477636   3.694074   2.956118   0.000000
    36  H    4.128793   3.430531   4.106020   2.279379   1.749871
    37  H    8.605343   8.134075   9.414735   7.994195   6.473991
    38  H    9.508372   9.516246  10.518487   8.649485   7.686324
    39  H    9.015406   9.151914   9.870859   7.684583   7.159758
    40  H    6.378432   5.584875   6.197444   4.209074   3.370787
    41  H    7.282482   6.773410   6.833413   4.841660   5.003214
    42  H    8.951283   9.000619   8.912687   6.714463   7.275520
    43  H    9.739190  10.071675  10.191652   7.809536   8.194795
    44  H    9.083277   9.314505   9.777095   7.434377   7.313981
    45  H    6.281840   5.310332   6.345646   4.638260   3.023444
                   36         37         38         39         40
    36  H    0.000000
    37  H    6.014939   0.000000
    38  H    6.737907   2.471532   0.000000
    39  H    5.891357   4.281062   2.472448   0.000000
    40  H    2.376148   5.976241   6.099072   4.671452   0.000000
    41  H    4.054311   8.330449   8.047933   6.096977   2.471212
    42  H    6.032374   9.285539   8.329202   5.973157   4.280440
    43  H    6.748641   8.329251   6.813815   4.341368   4.942596
    44  H    5.895718   5.974717   4.342403   1.869956   4.281313
    45  H    2.367252   4.280753   4.943190   4.280002   1.872539
                   41         42         43         44         45
    41  H    0.000000
    42  H    2.471846   0.000000
    43  H    4.280541   2.470556   0.000000
    44  H    4.943500   4.280333   2.471412   0.000000
    45  H    4.343751   5.975502   6.097865   4.672122   0.000000
 Stoichiometry    C19H23NO2
 Framework group  C1[X(C19H23NO2)]
 Deg. of freedom   129
 Full point group                 C1      NOp   1
 Largest Abelian subgroup         C1      NOp   1
 Largest concise Abelian subgroup C1      NOp   1
                         Standard orientation:                         
 ---------------------------------------------------------------------
 Center     Atomic      Atomic             Coordinates (Angstroms)
 Number     Number       Type             X           Y           Z
 ---------------------------------------------------------------------
      1          8           0        0.566645    3.452375    1.945869
      2          6           0        0.815640    2.866812    0.666581
      3          6           0        1.769017    1.668117    0.828195
      4          8           0        2.018837    1.081873   -0.452455
      5          6           0        2.906491   -0.029524   -0.303042
      6          6           0        3.211408   -0.724072   -1.582841
      7          6           0        4.396967   -1.673398   -1.257741
      8          6           0        4.257573   -2.202832    0.203808
      9          7           0        2.872735   -2.449247    0.435428
     10          6           0        2.222354   -1.108072    0.605485
     11          6           0       -0.513328    2.387370    0.053223
     12          6           0       -1.265700    3.252562   -0.751473
     13          6           0       -2.476259    2.817397   -1.307937
     14          6           0       -2.932533    1.515552   -1.061474
     15          6           0       -2.180028    0.649383   -0.256943
     16          6           0       -2.681539   -0.780475    0.014346
     17          6           0       -1.929034   -1.646644    0.818877
     18          6           0       -2.386264   -2.948659    1.065581
     19          6           0       -3.597086   -3.383698    0.508160
     20          6           0       -4.349460   -2.516678   -0.295249
     21          6           0       -3.892361   -1.215514   -0.543075
     22          6           0       -0.969602    1.085525    0.299687
     23          1           0        1.394499    3.751546    2.328343
     24          1           0        1.263801    3.593361    0.022250
     25          1           0        2.692621    2.001637    1.253670
     26          1           0        1.321944    0.940761    1.472120
     27          1           0        3.832070    0.318128    0.107027
     28          1           0        3.493538   -0.072479   -2.382701
     29          1           0        2.329230   -1.260161   -1.866632
     30          1           0        5.339100   -1.167776   -1.301881
     31          1           0        4.375639   -2.457691   -1.984879
     32          1           0        4.567985   -1.465702    0.915183
     33          1           0        4.863164   -3.077843    0.314667
     34          1           0        2.527573   -2.944065   -0.362987
     35          1           0        2.298644   -0.757872    1.613572
     36          1           0        1.192914   -1.237258    0.344872
     37          1           0       -0.917103    4.246714   -0.940962
     38          1           0       -3.051399    3.479007   -1.922735
     39          1           0       -3.856962    1.182713   -1.485586
     40          1           0       -1.005165   -1.315080    1.244020
     41          1           0       -1.811387   -3.610144    1.679422
     42          1           0       -3.946079   -4.376747    0.696858
     43          1           0       -5.273197   -2.849220   -0.720558
     44          1           0       -4.467238   -0.554030   -1.156916
     45          1           0       -0.394725    0.424041    0.913528
 ---------------------------------------------------------------------
 Rotational constants (GHZ):      0.3084035      0.2029757      0.1392482
 Leave Link  202 at Sun Oct  9 18:13:35 2022, MaxMem= 1610612736 cpu:       0.2
 (Enter /dataV/g09/l301.exe)
 Standard basis: 6-311G (5D, 7F)
 Ernie: Thresh=  0.10000D-02 Tol=  0.10000D-05 Strict=F.
 AO basis set in the form of general basis input (Overlap normalization):
      1 0
 S   6 1.00       0.000000000000
      0.8588500000D+04  0.1895150083D-02
      0.1297230000D+04  0.1438590063D-01
      0.2992960000D+03  0.7073200310D-01
      0.8737710000D+02  0.2400010105D+00
      0.2567890000D+02  0.5947970261D+00
      0.3740040000D+01  0.2808020123D+00
 SP   3 1.00       0.000000000000
      0.4211750000D+02  0.1138890124D+00  0.3651139738D-01
      0.9628370000D+01  0.9208111006D+00  0.2371529830D+00
      0.2853320000D+01 -0.3274470358D-02  0.8197019412D+00
 SP   1 1.00       0.000000000000
      0.9056610000D+00  0.1000000000D+01  0.1000000000D+01
 SP   1 1.00       0.000000000000
      0.2556110000D+00  0.1000000000D+01  0.1000000000D+01
 ****
      2 0
 S   6 1.00       0.000000000000
      0.4563240000D+04  0.1966650249D-02
      0.6820240000D+03  0.1523060193D-01
      0.1549730000D+03  0.7612690966D-01
      0.4445530000D+02  0.2608010331D+00
      0.1302900000D+02  0.6164620782D+00
      0.1827730000D+01  0.2210060280D+00
 SP   3 1.00       0.000000000000
      0.2096420000D+02  0.1146600807D+00  0.4024869267D-01
      0.4803310000D+01  0.9199996477D+00  0.2375939567D+00
      0.1459330000D+01 -0.3030682134D-02  0.8158538515D+00
 SP   1 1.00       0.000000000000
      0.4834560000D+00  0.1000000000D+01  0.1000000000D+01
 SP   1 1.00       0.000000000000
      0.1455850000D+00  0.1000000000D+01  0.1000000000D+01
 ****
      3 0
 S   6 1.00       0.000000000000
      0.4563240000D+04  0.1966650249D-02
      0.6820240000D+03  0.1523060193D-01
      0.1549730000D+03  0.7612690966D-01
      0.4445530000D+02  0.2608010331D+00
      0.1302900000D+02  0.6164620782D+00
      0.1827730000D+01  0.2210060280D+00
 SP   3 1.00       0.000000000000
      0.2096420000D+02  0.1146600807D+00  0.4024869267D-01
      0.4803310000D+01  0.9199996477D+00  0.2375939567D+00
      0.1459330000D+01 -0.3030682134D-02  0.8158538515D+00
 SP   1 1.00       0.000000000000
      0.4834560000D+00  0.1000000000D+01  0.1000000000D+01
 SP   1 1.00       0.000000000000
      0.1455850000D+00  0.1000000000D+01  0.1000000000D+01
 ****
      4 0
 S   6 1.00       0.000000000000
      0.8588500000D+04  0.1895150083D-02
      0.1297230000D+04  0.1438590063D-01
      0.2992960000D+03  0.7073200310D-01
      0.8737710000D+02  0.2400010105D+00
      0.2567890000D+02  0.5947970261D+00
      0.3740040000D+01  0.2808020123D+00
 SP   3 1.00       0.000000000000
      0.4211750000D+02  0.1138890124D+00  0.3651139738D-01
      0.9628370000D+01  0.9208111006D+00  0.2371529830D+00
      0.2853320000D+01 -0.3274470358D-02  0.8197019412D+00
 SP   1 1.00       0.000000000000
      0.9056610000D+00  0.1000000000D+01  0.1000000000D+01
 SP   1 1.00       0.000000000000
      0.2556110000D+00  0.1000000000D+01  0.1000000000D+01
 ****
      5 0
 S   6 1.00       0.000000000000
      0.4563240000D+04  0.1966650249D-02
      0.6820240000D+03  0.1523060193D-01
      0.1549730000D+03  0.7612690966D-01
      0.4445530000D+02  0.2608010331D+00
      0.1302900000D+02  0.6164620782D+00
      0.1827730000D+01  0.2210060280D+00
 SP   3 1.00       0.000000000000
      0.2096420000D+02  0.1146600807D+00  0.4024869267D-01
      0.4803310000D+01  0.9199996477D+00  0.2375939567D+00
      0.1459330000D+01 -0.3030682134D-02  0.8158538515D+00
 SP   1 1.00       0.000000000000
      0.4834560000D+00  0.1000000000D+01  0.1000000000D+01
 SP   1 1.00       0.000000000000
      0.1455850000D+00  0.1000000000D+01  0.1000000000D+01
 ****
      6 0
 S   6 1.00       0.000000000000
      0.4563240000D+04  0.1966650249D-02
      0.6820240000D+03  0.1523060193D-01
      0.1549730000D+03  0.7612690966D-01
      0.4445530000D+02  0.2608010331D+00
      0.1302900000D+02  0.6164620782D+00
      0.1827730000D+01  0.2210060280D+00
 SP   3 1.00       0.000000000000
      0.2096420000D+02  0.1146600807D+00  0.4024869267D-01
      0.4803310000D+01  0.9199996477D+00  0.2375939567D+00
      0.1459330000D+01 -0.3030682134D-02  0.8158538515D+00
 SP   1 1.00       0.000000000000
      0.4834560000D+00  0.1000000000D+01  0.1000000000D+01
 SP   1 1.00       0.000000000000
      0.1455850000D+00  0.1000000000D+01  0.1000000000D+01
 ****
      7 0
 S   6 1.00       0.000000000000
      0.4563240000D+04  0.1966650249D-02
      0.6820240000D+03  0.1523060193D-01
      0.1549730000D+03  0.7612690966D-01
      0.4445530000D+02  0.2608010331D+00
      0.1302900000D+02  0.6164620782D+00
      0.1827730000D+01  0.2210060280D+00
 SP   3 1.00       0.000000000000
      0.2096420000D+02  0.1146600807D+00  0.4024869267D-01
      0.4803310000D+01  0.9199996477D+00  0.2375939567D+00
      0.1459330000D+01 -0.3030682134D-02  0.8158538515D+00
 SP   1 1.00       0.000000000000
      0.4834560000D+00  0.1000000000D+01  0.1000000000D+01
 SP   1 1.00       0.000000000000
      0.1455850000D+00  0.1000000000D+01  0.1000000000D+01
 ****
      8 0
 S   6 1.00       0.000000000000
      0.4563240000D+04  0.1966650249D-02
      0.6820240000D+03  0.1523060193D-01
      0.1549730000D+03  0.7612690966D-01
      0.4445530000D+02  0.2608010331D+00
      0.1302900000D+02  0.6164620782D+00
      0.1827730000D+01  0.2210060280D+00
 SP   3 1.00       0.000000000000
      0.2096420000D+02  0.1146600807D+00  0.4024869267D-01
      0.4803310000D+01  0.9199996477D+00  0.2375939567D+00
      0.1459330000D+01 -0.3030682134D-02  0.8158538515D+00
 SP   1 1.00       0.000000000000
      0.4834560000D+00  0.1000000000D+01  0.1000000000D+01
 SP   1 1.00       0.000000000000
      0.1455850000D+00  0.1000000000D+01  0.1000000000D+01
 ****
      9 0
 S   6 1.00       0.000000000000
      0.6293480000D+04  0.1969788147D-02
      0.9490440000D+03  0.1496128592D-01
      0.2187760000D+03  0.7350053084D-01
      0.6369160000D+02  0.2489367658D+00
      0.1882820000D+02  0.6024594331D+00
      0.2720230000D+01  0.2562017589D+00
 SP   3 1.00       0.000000000000
      0.3063310000D+02  0.1119060795D+00  0.3831191864D-01
      0.7026140000D+01  0.9216666549D+00  0.2374031155D+00
      0.2112050000D+01 -0.2569191826D-02  0.8175923978D+00
 SP   1 1.00       0.000000000000
      0.6840090000D+00  0.1000000000D+01  0.1000000000D+01
 SP   1 1.00       0.000000000000
      0.2008780000D+00  0.1000000000D+01  0.1000000000D+01
 ****
     10 0
 S   6 1.00       0.000000000000
      0.4563240000D+04  0.1966650249D-02
      0.6820240000D+03  0.1523060193D-01
      0.1549730000D+03  0.7612690966D-01
      0.4445530000D+02  0.2608010331D+00
      0.1302900000D+02  0.6164620782D+00
      0.1827730000D+01  0.2210060280D+00
 SP   3 1.00       0.000000000000
      0.2096420000D+02  0.1146600807D+00  0.4024869267D-01
      0.4803310000D+01  0.9199996477D+00  0.2375939567D+00
      0.1459330000D+01 -0.3030682134D-02  0.8158538515D+00
 SP   1 1.00       0.000000000000
      0.4834560000D+00  0.1000000000D+01  0.1000000000D+01
 SP   1 1.00       0.000000000000
      0.1455850000D+00  0.1000000000D+01  0.1000000000D+01
 ****
     11 0
 S   6 1.00       0.000000000000
      0.4563240000D+04  0.1966650249D-02
      0.6820240000D+03  0.1523060193D-01
      0.1549730000D+03  0.7612690966D-01
      0.4445530000D+02  0.2608010331D+00
      0.1302900000D+02  0.6164620782D+00
      0.1827730000D+01  0.2210060280D+00
 SP   3 1.00       0.000000000000
      0.2096420000D+02  0.1146600807D+00  0.4024869267D-01
      0.4803310000D+01  0.9199996477D+00  0.2375939567D+00
      0.1459330000D+01 -0.3030682134D-02  0.8158538515D+00
 SP   1 1.00       0.000000000000
      0.4834560000D+00  0.1000000000D+01  0.1000000000D+01
 SP   1 1.00       0.000000000000
      0.1455850000D+00  0.1000000000D+01  0.1000000000D+01
 ****
     12 0
 S   6 1.00       0.000000000000
      0.4563240000D+04  0.1966650249D-02
      0.6820240000D+03  0.1523060193D-01
      0.1549730000D+03  0.7612690966D-01
      0.4445530000D+02  0.2608010331D+00
      0.1302900000D+02  0.6164620782D+00
      0.1827730000D+01  0.2210060280D+00
 SP   3 1.00       0.000000000000
      0.2096420000D+02  0.1146600807D+00  0.4024869267D-01
      0.4803310000D+01  0.9199996477D+00  0.2375939567D+00
      0.1459330000D+01 -0.3030682134D-02  0.8158538515D+00
 SP   1 1.00       0.000000000000
      0.4834560000D+00  0.1000000000D+01  0.1000000000D+01
 SP   1 1.00       0.000000000000
      0.1455850000D+00  0.1000000000D+01  0.1000000000D+01
 ****
     13 0
 S   6 1.00       0.000000000000
      0.4563240000D+04  0.1966650249D-02
      0.6820240000D+03  0.1523060193D-01
      0.1549730000D+03  0.7612690966D-01
      0.4445530000D+02  0.2608010331D+00
      0.1302900000D+02  0.6164620782D+00
      0.1827730000D+01  0.2210060280D+00
 SP   3 1.00       0.000000000000
      0.2096420000D+02  0.1146600807D+00  0.4024869267D-01
      0.4803310000D+01  0.9199996477D+00  0.2375939567D+00
      0.1459330000D+01 -0.3030682134D-02  0.8158538515D+00
 SP   1 1.00       0.000000000000
      0.4834560000D+00  0.1000000000D+01  0.1000000000D+01
 SP   1 1.00       0.000000000000
      0.1455850000D+00  0.1000000000D+01  0.1000000000D+01
 ****
     14 0
 S   6 1.00       0.000000000000
      0.4563240000D+04  0.1966650249D-02
      0.6820240000D+03  0.1523060193D-01
      0.1549730000D+03  0.7612690966D-01
      0.4445530000D+02  0.2608010331D+00
      0.1302900000D+02  0.6164620782D+00
      0.1827730000D+01  0.2210060280D+00
 SP   3 1.00       0.000000000000
      0.2096420000D+02  0.1146600807D+00  0.4024869267D-01
      0.4803310000D+01  0.9199996477D+00  0.2375939567D+00
      0.1459330000D+01 -0.3030682134D-02  0.8158538515D+00
 SP   1 1.00       0.000000000000
      0.4834560000D+00  0.1000000000D+01  0.1000000000D+01
 SP   1 1.00       0.000000000000
      0.1455850000D+00  0.1000000000D+01  0.1000000000D+01
 ****
     15 0
 S   6 1.00       0.000000000000
      0.4563240000D+04  0.1966650249D-02
      0.6820240000D+03  0.1523060193D-01
      0.1549730000D+03  0.7612690966D-01
      0.4445530000D+02  0.2608010331D+00
      0.1302900000D+02  0.6164620782D+00
      0.1827730000D+01  0.2210060280D+00
 SP   3 1.00       0.000000000000
      0.2096420000D+02  0.1146600807D+00  0.4024869267D-01
      0.4803310000D+01  0.9199996477D+00  0.2375939567D+00
      0.1459330000D+01 -0.3030682134D-02  0.8158538515D+00
 SP   1 1.00       0.000000000000
      0.4834560000D+00  0.1000000000D+01  0.1000000000D+01
 SP   1 1.00       0.000000000000
      0.1455850000D+00  0.1000000000D+01  0.1000000000D+01
 ****
     16 0
 S   6 1.00       0.000000000000
      0.4563240000D+04  0.1966650249D-02
      0.6820240000D+03  0.1523060193D-01
      0.1549730000D+03  0.7612690966D-01
      0.4445530000D+02  0.2608010331D+00
      0.1302900000D+02  0.6164620782D+00
      0.1827730000D+01  0.2210060280D+00
 SP   3 1.00       0.000000000000
      0.2096420000D+02  0.1146600807D+00  0.4024869267D-01
      0.4803310000D+01  0.9199996477D+00  0.2375939567D+00
      0.1459330000D+01 -0.3030682134D-02  0.8158538515D+00
 SP   1 1.00       0.000000000000
      0.4834560000D+00  0.1000000000D+01  0.1000000000D+01
 SP   1 1.00       0.000000000000
      0.1455850000D+00  0.1000000000D+01  0.1000000000D+01
 ****
     17 0
 S   6 1.00       0.000000000000
      0.4563240000D+04  0.1966650249D-02
      0.6820240000D+03  0.1523060193D-01
      0.1549730000D+03  0.7612690966D-01
      0.4445530000D+02  0.2608010331D+00
      0.1302900000D+02  0.6164620782D+00
      0.1827730000D+01  0.2210060280D+00
 SP   3 1.00       0.000000000000
      0.2096420000D+02  0.1146600807D+00  0.4024869267D-01
      0.4803310000D+01  0.9199996477D+00  0.2375939567D+00
      0.1459330000D+01 -0.3030682134D-02  0.8158538515D+00
 SP   1 1.00       0.000000000000
      0.4834560000D+00  0.1000000000D+01  0.1000000000D+01
 SP   1 1.00       0.000000000000
      0.1455850000D+00  0.1000000000D+01  0.1000000000D+01
 ****
     18 0
 S   6 1.00       0.000000000000
      0.4563240000D+04  0.1966650249D-02
      0.6820240000D+03  0.1523060193D-01
      0.1549730000D+03  0.7612690966D-01
      0.4445530000D+02  0.2608010331D+00
      0.1302900000D+02  0.6164620782D+00
      0.1827730000D+01  0.2210060280D+00
 SP   3 1.00       0.000000000000
      0.2096420000D+02  0.1146600807D+00  0.4024869267D-01
      0.4803310000D+01  0.9199996477D+00  0.2375939567D+00
      0.1459330000D+01 -0.3030682134D-02  0.8158538515D+00
 SP   1 1.00       0.000000000000
      0.4834560000D+00  0.1000000000D+01  0.1000000000D+01
 SP   1 1.00       0.000000000000
      0.1455850000D+00  0.1000000000D+01  0.1000000000D+01
 ****
     19 0
 S   6 1.00       0.000000000000
      0.4563240000D+04  0.1966650249D-02
      0.6820240000D+03  0.1523060193D-01
      0.1549730000D+03  0.7612690966D-01
      0.4445530000D+02  0.2608010331D+00
      0.1302900000D+02  0.6164620782D+00
      0.1827730000D+01  0.2210060280D+00
 SP   3 1.00       0.000000000000
      0.2096420000D+02  0.1146600807D+00  0.4024869267D-01
      0.4803310000D+01  0.9199996477D+00  0.2375939567D+00
      0.1459330000D+01 -0.3030682134D-02  0.8158538515D+00
 SP   1 1.00       0.000000000000
      0.4834560000D+00  0.1000000000D+01  0.1000000000D+01
 SP   1 1.00       0.000000000000
      0.1455850000D+00  0.1000000000D+01  0.1000000000D+01
 ****
     20 0
 S   6 1.00       0.000000000000
      0.4563240000D+04  0.1966650249D-02
      0.6820240000D+03  0.1523060193D-01
      0.1549730000D+03  0.7612690966D-01
      0.4445530000D+02  0.2608010331D+00
      0.1302900000D+02  0.6164620782D+00
      0.1827730000D+01  0.2210060280D+00
 SP   3 1.00       0.000000000000
      0.2096420000D+02  0.1146600807D+00  0.4024869267D-01
      0.4803310000D+01  0.9199996477D+00  0.2375939567D+00
      0.1459330000D+01 -0.3030682134D-02  0.8158538515D+00
 SP   1 1.00       0.000000000000
      0.4834560000D+00  0.1000000000D+01  0.1000000000D+01
 SP   1 1.00       0.000000000000
      0.1455850000D+00  0.1000000000D+01  0.1000000000D+01
 ****
     21 0
 S   6 1.00       0.000000000000
      0.4563240000D+04  0.1966650249D-02
      0.6820240000D+03  0.1523060193D-01
      0.1549730000D+03  0.7612690966D-01
      0.4445530000D+02  0.2608010331D+00
      0.1302900000D+02  0.6164620782D+00
      0.1827730000D+01  0.2210060280D+00
 SP   3 1.00       0.000000000000
      0.2096420000D+02  0.1146600807D+00  0.4024869267D-01
      0.4803310000D+01  0.9199996477D+00  0.2375939567D+00
      0.1459330000D+01 -0.3030682134D-02  0.8158538515D+00
 SP   1 1.00       0.000000000000
      0.4834560000D+00  0.1000000000D+01  0.1000000000D+01
 SP   1 1.00       0.000000000000
      0.1455850000D+00  0.1000000000D+01  0.1000000000D+01
 ****
     22 0
 S   6 1.00       0.000000000000
      0.4563240000D+04  0.1966650249D-02
      0.6820240000D+03  0.1523060193D-01
      0.1549730000D+03  0.7612690966D-01
      0.4445530000D+02  0.2608010331D+00
      0.1302900000D+02  0.6164620782D+00
      0.1827730000D+01  0.2210060280D+00
 SP   3 1.00       0.000000000000
      0.2096420000D+02  0.1146600807D+00  0.4024869267D-01
      0.4803310000D+01  0.9199996477D+00  0.2375939567D+00
      0.1459330000D+01 -0.3030682134D-02  0.8158538515D+00
 SP   1 1.00       0.000000000000
      0.4834560000D+00  0.1000000000D+01  0.1000000000D+01
 SP   1 1.00       0.000000000000
      0.1455850000D+00  0.1000000000D+01  0.1000000000D+01
 ****
     23 0
 S   3 1.00       0.000000000000
      0.3386500000D+02  0.2549381454D-01
      0.5094790000D+01  0.1903731086D+00
      0.1158790000D+01  0.8521614860D+00
 S   1 1.00       0.000000000000
      0.3258400000D+00  0.1000000000D+01
 S   1 1.00       0.000000000000
      0.1027410000D+00  0.1000000000D+01
 ****
     24 0
 S   3 1.00       0.000000000000
      0.3386500000D+02  0.2549381454D-01
      0.5094790000D+01  0.1903731086D+00
      0.1158790000D+01  0.8521614860D+00
 S   1 1.00       0.000000000000
      0.3258400000D+00  0.1000000000D+01
 S   1 1.00       0.000000000000
      0.1027410000D+00  0.1000000000D+01
 ****
     25 0
 S   3 1.00       0.000000000000
      0.3386500000D+02  0.2549381454D-01
      0.5094790000D+01  0.1903731086D+00
      0.1158790000D+01  0.8521614860D+00
 S   1 1.00       0.000000000000
      0.3258400000D+00  0.1000000000D+01
 S   1 1.00       0.000000000000
      0.1027410000D+00  0.1000000000D+01
 ****
     26 0
 S   3 1.00       0.000000000000
      0.3386500000D+02  0.2549381454D-01
      0.5094790000D+01  0.1903731086D+00
      0.1158790000D+01  0.8521614860D+00
 S   1 1.00       0.000000000000
      0.3258400000D+00  0.1000000000D+01
 S   1 1.00       0.000000000000
      0.1027410000D+00  0.1000000000D+01
 ****
     27 0
 S   3 1.00       0.000000000000
      0.3386500000D+02  0.2549381454D-01
      0.5094790000D+01  0.1903731086D+00
      0.1158790000D+01  0.8521614860D+00
 S   1 1.00       0.000000000000
      0.3258400000D+00  0.1000000000D+01
 S   1 1.00       0.000000000000
      0.1027410000D+00  0.1000000000D+01
 ****
     28 0
 S   3 1.00       0.000000000000
      0.3386500000D+02  0.2549381454D-01
      0.5094790000D+01  0.1903731086D+00
      0.1158790000D+01  0.8521614860D+00
 S   1 1.00       0.000000000000
      0.3258400000D+00  0.1000000000D+01
 S   1 1.00       0.000000000000
      0.1027410000D+00  0.1000000000D+01
 ****
     29 0
 S   3 1.00       0.000000000000
      0.3386500000D+02  0.2549381454D-01
      0.5094790000D+01  0.1903731086D+00
      0.1158790000D+01  0.8521614860D+00
 S   1 1.00       0.000000000000
      0.3258400000D+00  0.1000000000D+01
 S   1 1.00       0.000000000000
      0.1027410000D+00  0.1000000000D+01
 ****
     30 0
 S   3 1.00       0.000000000000
      0.3386500000D+02  0.2549381454D-01
      0.5094790000D+01  0.1903731086D+00
      0.1158790000D+01  0.8521614860D+00
 S   1 1.00       0.000000000000
      0.3258400000D+00  0.1000000000D+01
 S   1 1.00       0.000000000000
      0.1027410000D+00  0.1000000000D+01
 ****
     31 0
 S   3 1.00       0.000000000000
      0.3386500000D+02  0.2549381454D-01
      0.5094790000D+01  0.1903731086D+00
      0.1158790000D+01  0.8521614860D+00
 S   1 1.00       0.000000000000
      0.3258400000D+00  0.1000000000D+01
 S   1 1.00       0.000000000000
      0.1027410000D+00  0.1000000000D+01
 ****
     32 0
 S   3 1.00       0.000000000000
      0.3386500000D+02  0.2549381454D-01
      0.5094790000D+01  0.1903731086D+00
      0.1158790000D+01  0.8521614860D+00
 S   1 1.00       0.000000000000
      0.3258400000D+00  0.1000000000D+01
 S   1 1.00       0.000000000000
      0.1027410000D+00  0.1000000000D+01
 ****
     33 0
 S   3 1.00       0.000000000000
      0.3386500000D+02  0.2549381454D-01
      0.5094790000D+01  0.1903731086D+00
      0.1158790000D+01  0.8521614860D+00
 S   1 1.00       0.000000000000
      0.3258400000D+00  0.1000000000D+01
 S   1 1.00       0.000000000000
      0.1027410000D+00  0.1000000000D+01
 ****
     34 0
 S   3 1.00       0.000000000000
      0.3386500000D+02  0.2549381454D-01
      0.5094790000D+01  0.1903731086D+00
      0.1158790000D+01  0.8521614860D+00
 S   1 1.00       0.000000000000
      0.3258400000D+00  0.1000000000D+01
 S   1 1.00       0.000000000000
      0.1027410000D+00  0.1000000000D+01
 ****
     35 0
 S   3 1.00       0.000000000000
      0.3386500000D+02  0.2549381454D-01
      0.5094790000D+01  0.1903731086D+00
      0.1158790000D+01  0.8521614860D+00
 S   1 1.00       0.000000000000
      0.3258400000D+00  0.1000000000D+01
 S   1 1.00       0.000000000000
      0.1027410000D+00  0.1000000000D+01
 ****
     36 0
 S   3 1.00       0.000000000000
      0.3386500000D+02  0.2549381454D-01
      0.5094790000D+01  0.1903731086D+00
      0.1158790000D+01  0.8521614860D+00
 S   1 1.00       0.000000000000
      0.3258400000D+00  0.1000000000D+01
 S   1 1.00       0.000000000000
      0.1027410000D+00  0.1000000000D+01
 ****
     37 0
 S   3 1.00       0.000000000000
      0.3386500000D+02  0.2549381454D-01
      0.5094790000D+01  0.1903731086D+00
      0.1158790000D+01  0.8521614860D+00
 S   1 1.00       0.000000000000
      0.3258400000D+00  0.1000000000D+01
 S   1 1.00       0.000000000000
      0.1027410000D+00  0.1000000000D+01
 ****
     38 0
 S   3 1.00       0.000000000000
      0.3386500000D+02  0.2549381454D-01
      0.5094790000D+01  0.1903731086D+00
      0.1158790000D+01  0.8521614860D+00
 S   1 1.00       0.000000000000
      0.3258400000D+00  0.1000000000D+01
 S   1 1.00       0.000000000000
      0.1027410000D+00  0.1000000000D+01
 ****
     39 0
 S   3 1.00       0.000000000000
      0.3386500000D+02  0.2549381454D-01
      0.5094790000D+01  0.1903731086D+00
      0.1158790000D+01  0.8521614860D+00
 S   1 1.00       0.000000000000
      0.3258400000D+00  0.1000000000D+01
 S   1 1.00       0.000000000000
      0.1027410000D+00  0.1000000000D+01
 ****
     40 0
 S   3 1.00       0.000000000000
      0.3386500000D+02  0.2549381454D-01
      0.5094790000D+01  0.1903731086D+00
      0.1158790000D+01  0.8521614860D+00
 S   1 1.00       0.000000000000
      0.3258400000D+00  0.1000000000D+01
 S   1 1.00       0.000000000000
      0.1027410000D+00  0.1000000000D+01
 ****
     41 0
 S   3 1.00       0.000000000000
      0.3386500000D+02  0.2549381454D-01
      0.5094790000D+01  0.1903731086D+00
      0.1158790000D+01  0.8521614860D+00
 S   1 1.00       0.000000000000
      0.3258400000D+00  0.1000000000D+01
 S   1 1.00       0.000000000000
      0.1027410000D+00  0.1000000000D+01
 ****
     42 0
 S   3 1.00       0.000000000000
      0.3386500000D+02  0.2549381454D-01
      0.5094790000D+01  0.1903731086D+00
      0.1158790000D+01  0.8521614860D+00
 S   1 1.00       0.000000000000
      0.3258400000D+00  0.1000000000D+01
 S   1 1.00       0.000000000000
      0.1027410000D+00  0.1000000000D+01
 ****
     43 0
 S   3 1.00       0.000000000000
      0.3386500000D+02  0.2549381454D-01
      0.5094790000D+01  0.1903731086D+00
      0.1158790000D+01  0.8521614860D+00
 S   1 1.00       0.000000000000
      0.3258400000D+00  0.1000000000D+01
 S   1 1.00       0.000000000000
      0.1027410000D+00  0.1000000000D+01
 ****
     44 0
 S   3 1.00       0.000000000000
      0.3386500000D+02  0.2549381454D-01
      0.5094790000D+01  0.1903731086D+00
      0.1158790000D+01  0.8521614860D+00
 S   1 1.00       0.000000000000
      0.3258400000D+00  0.1000000000D+01
 S   1 1.00       0.000000000000
      0.1027410000D+00  0.1000000000D+01
 ****
     45 0
 S   3 1.00       0.000000000000
      0.3386500000D+02  0.2549381454D-01
      0.5094790000D+01  0.1903731086D+00
      0.1158790000D+01  0.8521614860D+00
 S   1 1.00       0.000000000000
      0.3258400000D+00  0.1000000000D+01
 S   1 1.00       0.000000000000
      0.1027410000D+00  0.1000000000D+01
 ****

 There are   355 symmetry adapted basis functions of A   symmetry.
 Integral buffers will be    131072 words long.
 Raffenetti 2 integral format.
 Two-electron integral symmetry is turned on.
   355 basis functions,   687 primitive gaussians,   355 cartesian basis functions
    80 alpha electrons       80 beta electrons
       nuclear repulsion energy      1769.9822971230 Hartrees.
 IExCor=  402 DFT=T Ex+Corr=B3LYP ExCW=0 ScaHFX=  0.200000
 ScaDFX=  0.800000  0.720000  1.000000  0.810000 ScalE2=  1.000000  1.000000
 IRadAn=      0 IRanWt=     -1 IRanGd=            0 ICorTp=0
 NAtoms=   45 NActive=   45 NUniq=   45 SFac= 7.50D-01 NAtFMM=   80 NAOKFM=F Big=F
 Leave Link  301 at Sun Oct  9 18:13:35 2022, MaxMem= 1610612736 cpu:       0.3
 (Enter /dataV/g09/l302.exe)
 NPDir=0 NMtPBC=     1 NCelOv=     1 NCel=       1 NClECP=     1 NCelD=      1
         NCelK=      1 NCelE2=     1 NClLst=     1 CellRange=     0.0.
 One-electron integrals computed using PRISM.
 NBasis=   355 RedAO= T  NBF=   355
 NBsUse=   355 1.00D-06 NBFU=   355
 Precomputing XC quadrature grid using
 IXCGrd= 2 IRadAn=           0 IRanWt=          -1 IRanGd=           0 AccXCQ= 1.00D-10.
 NRdTot=    2886 NPtTot=      368380 NUsed=      389180 NTot=      389212
 NSgBfM=   353   353   353   353   353 NAtAll=    45    45.
 Leave Link  302 at Sun Oct  9 18:13:37 2022, MaxMem= 1610612736 cpu:       3.2
 (Enter /dataV/g09/l303.exe)
 DipDrv:  MaxL=1.
 Leave Link  303 at Sun Oct  9 18:13:37 2022, MaxMem= 1610612736 cpu:       0.5
 (Enter /dataV/g09/l401.exe)
 Initial guess read from the checkpoint file:  compuesto1_2.chk
 B after Tr=     0.043761    0.057417   -0.085756
         Rot=    0.509727    0.559557   -0.541374    0.366045 Ang= 118.71 deg.
 Guess basis will be translated and rotated to current coordinates.
 Initial guess orbital symmetries:
       Occupied  (A) (A) (A) (A) (A) (A) (A) (A) (A) (A) (A) (A)
                 (A) (A) (A) (A) (A) (A) (A) (A) (A) (A) (A) (A)
                 (A) (A) (A) (A) (A) (A) (A) (A) (A) (A) (A) (A)
                 (A) (A) (A) (A) (A) (A) (A) (A) (A) (A) (A) (A)
                 (A) (A) (A) (A) (A) (A) (A) (A) (A) (A) (A) (A)
                 (A) (A) (A) (A) (A) (A) (A) (A) (A) (A) (A) (A)
                 (A) (A) (A) (A) (A) (A) (A) (A)
       Virtual   (A) (A) (A) (A) (A) (A) (A) (A) (A) (A) (A) (A)
                 (A) (A) (A) (A) (A) (A) (A) (A) (A) (A) (A) (A)
                 (A) (A) (A) (A) (A) (A) (A) (A) (A) (A) (A) (A)
                 (A) (A) (A) (A) (A) (A) (A) (A) (A) (A) (A) (A)
                 (A) (A) (A) (A) (A) (A) (A) (A) (A) (A) (A) (A)
                 (A) (A) (A) (A) (A) (A) (A) (A) (A) (A) (A) (A)
                 (A) (A) (A) (A) (A) (A) (A) (A) (A) (A) (A) (A)
                 (A) (A) (A) (A) (A) (A) (A) (A) (A) (A) (A) (A)
                 (A) (A) (A) (A) (A) (A) (A) (A) (A) (A) (A) (A)
                 (A) (A) (A) (A) (A) (A) (A) (A) (A) (A) (A) (A)
                 (A) (A) (A) (A) (A) (A) (A) (A) (A) (A) (A) (A)
                 (A) (A) (A) (A) (A) (A) (A) (A) (A) (A) (A) (A)
                 (A) (A) (A) (A) (A) (A) (A) (A) (A) (A) (A) (A)
                 (A) (A) (A) (A) (A) (A) (A) (A) (A) (A) (A) (A)
                 (A) (A) (A) (A) (A) (A) (A) (A) (A) (A) (A) (A)
                 (A) (A) (A) (A) (A) (A) (A) (A) (A) (A) (A) (A)
                 (A) (A) (A) (A) (A) (A) (A) (A) (A) (A) (A) (A)
                 (A) (A) (A) (A) (A) (A) (A) (A) (A) (A) (A) (A)
                 (A) (A) (A) (A) (A) (A) (A) (A) (A) (A) (A) (A)
                 (A) (A) (A) (A) (A) (A) (A) (A) (A) (A) (A) (A)
                 (A) (A) (A) (A) (A) (A) (A) (A) (A) (A) (A) (A)
                 (A) (A) (A) (A) (A) (A) (A) (A) (A) (A) (A) (A)
                 (A) (A) (A) (A) (A) (A) (A) (A) (A) (A) (A)
 The electronic state of the initial guess is 1-A.
 Leave Link  401 at Sun Oct  9 18:13:39 2022, MaxMem= 1610612736 cpu:       2.4
 (Enter /dataV/g09/l502.exe)
 Closed shell SCF:
 Requested convergence on RMS density matrix=1.00D-08 within 128 cycles.
 Requested convergence on MAX density matrix=1.00D-06.
 Requested convergence on             energy=1.00D-06.
 No special actions if energy rises.
 Using DIIS extrapolation, IDIIS=  1040.
 Integral symmetry usage will be decided dynamically.
       388762 words used for storage of precomputed grid.
 IEnd=      789845 IEndB=      789845 NGot=  1610612736 MDV=  1609965912
 LenX=  1609965912 LenY=  1609839446
 Fock matrices will be formed incrementally for  20 cycles.

 Cycle   1  Pass 1  IDiag  1:
 FoFCou: FMM=F IPFlag=           0 FMFlag=      100000 FMFlg1=           0
         NFxFlg=           0 DoJE=F BraDBF=F KetDBF=F FulRan=T
         Omega=  0.000000  0.000000  1.000000  0.000000  0.000000 ICntrl=       0 IOpCl=  0
         NMat0=    1 NMatS0=    1 NMatT0=    0 NMatD0=    1 NMtDS0=    0 NMtDT0=    0
         I1Cent=           0 NGrid=           0.
 Symmetry not used in FoFCou.
 E= -929.712574790447    
 DIIS: error= 9.34D-02 at cycle   1 NSaved=   1.
 NSaved= 1 IEnMin= 1 EnMin= -929.712574790447     IErMin= 1 ErrMin= 9.34D-02
 ErrMax= 9.34D-02 EMaxC= 1.00D-01 BMatC= 3.98D+00 BMatP= 3.98D+00
 IDIUse=3 WtCom= 6.62D-02 WtEn= 9.34D-01
 Coeff-Com:  0.100D+01
 Coeff-En:   0.100D+01
 Coeff:      0.100D+01
 Gap=     0.544 Goal=   None    Shift=    0.000
 GapD=    0.544 DampG=2.000 DampE=0.500 DampFc=1.0000 IDamp=-1.
 RMSDP=1.31D-02 MaxDP=2.41D-01              OVMax= 8.68D-01

 Cycle   2  Pass 1  IDiag  1:
 RMSU=  7.24D-03    CP:  5.31D-01
 E= -942.217254274394     Delta-E=      -12.504679483947 Rises=F Damp=F
 DIIS: error= 3.61D-02 at cycle   2 NSaved=   2.
 NSaved= 2 IEnMin= 2 EnMin= -942.217254274394     IErMin= 2 ErrMin= 3.61D-02
 ErrMax= 3.61D-02 EMaxC= 1.00D-01 BMatC= 7.07D-01 BMatP= 3.98D+00
 IDIUse=3 WtCom= 6.39D-01 WtEn= 3.61D-01
 Coeff-Com:  0.160D+00 0.840D+00
 Coeff-En:   0.000D+00 0.100D+01
 Coeff:      0.102D+00 0.898D+00
 Gap=     0.357 Goal=   None    Shift=    0.000
 RMSDP=5.26D-03 MaxDP=1.80D-01 DE=-1.25D+01 OVMax= 2.44D-01

 Cycle   3  Pass 1  IDiag  1:
 RMSU=  3.55D-03    CP:  5.31D-01  8.47D-01
 E= -942.296404970634     Delta-E=       -0.079150696241 Rises=F Damp=F
 DIIS: error= 3.14D-02 at cycle   3 NSaved=   3.
 NSaved= 3 IEnMin= 3 EnMin= -942.296404970634     IErMin= 3 ErrMin= 3.14D-02
 ErrMax= 3.14D-02 EMaxC= 1.00D-01 BMatC= 6.60D-01 BMatP= 7.07D-01
 IDIUse=3 WtCom= 6.86D-01 WtEn= 3.14D-01
 Coeff-Com: -0.191D-01 0.498D+00 0.521D+00
 Coeff-En:   0.000D+00 0.473D+00 0.527D+00
 Coeff:     -0.131D-01 0.490D+00 0.523D+00
 Gap=     0.276 Goal=   None    Shift=    0.000
 RMSDP=2.93D-03 MaxDP=9.76D-02 DE=-7.92D-02 OVMax= 1.85D-01

 Cycle   4  Pass 1  IDiag  1:
 RMSU=  1.08D-03    CP:  5.14D-01  9.14D-01  5.24D-01
 E= -942.936592459266     Delta-E=       -0.640187488632 Rises=F Damp=F
 DIIS: error= 1.76D-02 at cycle   4 NSaved=   4.
 NSaved= 4 IEnMin= 4 EnMin= -942.936592459266     IErMin= 4 ErrMin= 1.76D-02
 ErrMax= 1.76D-02 EMaxC= 1.00D-01 BMatC= 3.06D-02 BMatP= 6.60D-01
 IDIUse=3 WtCom= 8.24D-01 WtEn= 1.76D-01
 Coeff-Com: -0.133D-01 0.222D+00 0.267D+00 0.525D+00
 Coeff-En:   0.000D+00 0.000D+00 0.000D+00 0.100D+01
 Coeff:     -0.109D-01 0.183D+00 0.220D+00 0.609D+00
 Gap=     0.183 Goal=   None    Shift=    0.000
 RMSDP=1.04D-03 MaxDP=2.91D-02 DE=-6.40D-01 OVMax= 9.44D-02

 Cycle   5  Pass 1  IDiag  1:
 RMSU=  5.81D-04    CP:  5.12D-01  9.00D-01  5.93D-01  6.63D-01
 E= -942.951116708718     Delta-E=       -0.014524249451 Rises=F Damp=F
 DIIS: error= 1.40D-02 at cycle   5 NSaved=   5.
 NSaved= 5 IEnMin= 5 EnMin= -942.951116708718     IErMin= 5 ErrMin= 1.40D-02
 ErrMax= 1.40D-02 EMaxC= 1.00D-01 BMatC= 1.62D-02 BMatP= 3.06D-02
 IDIUse=3 WtCom= 8.60D-01 WtEn= 1.40D-01
 Coeff-Com: -0.360D-02 0.404D-01 0.517D-01 0.417D+00 0.495D+00
 Coeff-En:   0.000D+00 0.000D+00 0.000D+00 0.388D+00 0.612D+00
 Coeff:     -0.309D-02 0.348D-01 0.445D-01 0.413D+00 0.511D+00
 Gap=     0.185 Goal=   None    Shift=    0.000
 RMSDP=5.07D-04 MaxDP=1.49D-02 DE=-1.45D-02 OVMax= 4.76D-02

 Cycle   6  Pass 1  IDiag  1:
 RMSU=  1.48D-04    CP:  5.12D-01  9.05D-01  5.70D-01  8.02D-01  5.25D-01
 E= -942.968669032440     Delta-E=       -0.017552323722 Rises=F Damp=F
 DIIS: error= 2.39D-03 at cycle   6 NSaved=   6.
 NSaved= 6 IEnMin= 6 EnMin= -942.968669032440     IErMin= 6 ErrMin= 2.39D-03
 ErrMax= 2.39D-03 EMaxC= 1.00D-01 BMatC= 9.64D-04 BMatP= 1.62D-02
 IDIUse=3 WtCom= 9.76D-01 WtEn= 2.39D-02
 Coeff-Com: -0.981D-03 0.263D-02 0.242D-02 0.197D+00 0.308D+00 0.492D+00
 Coeff-En:   0.000D+00 0.000D+00 0.000D+00 0.000D+00 0.000D+00 0.100D+01
 Coeff:     -0.958D-03 0.257D-02 0.237D-02 0.192D+00 0.300D+00 0.504D+00
 Gap=     0.176 Goal=   None    Shift=    0.000
 RMSDP=1.20D-04 MaxDP=3.17D-03 DE=-1.76D-02 OVMax= 1.07D-02

 Cycle   7  Pass 1  IDiag  1:
 RMSU=  4.55D-05    CP:  5.12D-01  9.05D-01  5.73D-01  7.90D-01  5.89D-01
                    CP:  6.03D-01
 E= -942.969674567443     Delta-E=       -0.001005535003 Rises=F Damp=F
 DIIS: error= 4.27D-04 at cycle   7 NSaved=   7.
 NSaved= 7 IEnMin= 7 EnMin= -942.969674567443     IErMin= 7 ErrMin= 4.27D-04
 ErrMax= 4.27D-04 EMaxC= 1.00D-01 BMatC= 3.86D-05 BMatP= 9.64D-04
 IDIUse=3 WtCom= 9.96D-01 WtEn= 4.27D-03
 Coeff-Com: -0.144D-03-0.111D-02-0.268D-02 0.479D-01 0.837D-01 0.231D+00
 Coeff-Com:  0.642D+00
 Coeff-En:   0.000D+00 0.000D+00 0.000D+00 0.000D+00 0.000D+00 0.000D+00
 Coeff-En:   0.100D+01
 Coeff:     -0.143D-03-0.110D-02-0.266D-02 0.477D-01 0.833D-01 0.230D+00
 Coeff:      0.643D+00
 Gap=     0.177 Goal=   None    Shift=    0.000
 RMSDP=2.69D-05 MaxDP=1.42D-03 DE=-1.01D-03 OVMax= 1.87D-03

 Cycle   8  Pass 1  IDiag  1:
 RMSU=  1.14D-05    CP:  5.12D-01  9.05D-01  5.72D-01  7.97D-01  5.85D-01
                    CP:  6.37D-01  7.53D-01
 E= -942.969710710926     Delta-E=       -0.000036143484 Rises=F Damp=F
 DIIS: error= 1.05D-04 at cycle   8 NSaved=   8.
 NSaved= 8 IEnMin= 8 EnMin= -942.969710710926     IErMin= 8 ErrMin= 1.05D-04
 ErrMax= 1.05D-04 EMaxC= 1.00D-01 BMatC= 4.57D-06 BMatP= 3.86D-05
 IDIUse=3 WtCom= 9.99D-01 WtEn= 1.05D-03
 EnCoef did     5 forward-backward iterations
 Coeff-Com: -0.307D-05-0.709D-03-0.160D-02 0.653D-02 0.147D-01 0.769D-01
 Coeff-Com:  0.346D+00 0.558D+00
 Coeff-En:   0.000D+00 0.000D+00 0.000D+00 0.000D+00 0.000D+00 0.000D+00
 Coeff-En:   0.142D-02 0.999D+00
 Coeff:     -0.307D-05-0.709D-03-0.160D-02 0.653D-02 0.147D-01 0.769D-01
 Coeff:      0.345D+00 0.559D+00
 Gap=     0.177 Goal=   None    Shift=    0.000
 RMSDP=8.16D-06 MaxDP=2.27D-04 DE=-3.61D-05 OVMax= 6.48D-04

 Cycle   9  Pass 1  IDiag  1:
 RMSU=  3.58D-06    CP:  5.12D-01  9.05D-01  5.72D-01  7.97D-01  5.86D-01
                    CP:  6.40D-01  7.61D-01  6.13D-01
 E= -942.969715103972     Delta-E=       -0.000004393045 Rises=F Damp=F
 DIIS: error= 6.59D-05 at cycle   9 NSaved=   9.
 NSaved= 9 IEnMin= 9 EnMin= -942.969715103972     IErMin= 9 ErrMin= 6.59D-05
 ErrMax= 6.59D-05 EMaxC= 1.00D-01 BMatC= 3.18D-07 BMatP= 4.57D-06
 IDIUse=1 WtCom= 1.00D+00 WtEn= 0.00D+00
 Coeff-Com:  0.533D-05-0.298D-03-0.657D-03 0.364D-03 0.241D-02 0.256D-01
 Coeff-Com:  0.141D+00 0.290D+00 0.541D+00
 Coeff:      0.533D-05-0.298D-03-0.657D-03 0.364D-03 0.241D-02 0.256D-01
 Coeff:      0.141D+00 0.290D+00 0.541D+00
 Gap=     0.177 Goal=   None    Shift=    0.000
 RMSDP=2.79D-06 MaxDP=6.77D-05 DE=-4.39D-06 OVMax= 3.16D-04

 Cycle  10  Pass 1  IDiag  1:
 RMSU=  1.57D-06    CP:  5.12D-01  9.05D-01  5.72D-01  7.97D-01  5.86D-01
                    CP:  6.43D-01  7.59D-01  6.42D-01  7.15D-01
 E= -942.969715379806     Delta-E=       -0.000000275835 Rises=F Damp=F
 DIIS: error= 2.77D-05 at cycle  10 NSaved=  10.
 NSaved=10 IEnMin=10 EnMin= -942.969715379806     IErMin=10 ErrMin= 2.77D-05
 ErrMax= 2.77D-05 EMaxC= 1.00D-01 BMatC= 7.90D-08 BMatP= 3.18D-07
 IDIUse=1 WtCom= 1.00D+00 WtEn= 0.00D+00
 Coeff-Com:  0.232D-05-0.461D-04-0.912D-04-0.923D-03-0.118D-02 0.118D-02
 Coeff-Com:  0.210D-01 0.731D-01 0.354D+00 0.553D+00
 Coeff:      0.232D-05-0.461D-04-0.912D-04-0.923D-03-0.118D-02 0.118D-02
 Coeff:      0.210D-01 0.731D-01 0.354D+00 0.553D+00
 Gap=     0.177 Goal=   None    Shift=    0.000
 RMSDP=1.20D-06 MaxDP=3.56D-05 DE=-2.76D-07 OVMax= 1.03D-04

 Cycle  11  Pass 1  IDiag  1:
 RMSU=  4.01D-07    CP:  5.12D-01  9.05D-01  5.72D-01  7.97D-01  5.86D-01
                    CP:  6.43D-01  7.66D-01  6.43D-01  7.81D-01  6.02D-01
 E= -942.969715473178     Delta-E=       -0.000000093371 Rises=F Damp=F
 DIIS: error= 2.36D-06 at cycle  11 NSaved=  11.
 NSaved=11 IEnMin=11 EnMin= -942.969715473178     IErMin=11 ErrMin= 2.36D-06
 ErrMax= 2.36D-06 EMaxC= 1.00D-01 BMatC= 1.15D-09 BMatP= 7.90D-08
 IDIUse=1 WtCom= 1.00D+00 WtEn= 0.00D+00
 Coeff-Com:  0.681D-06-0.390D-05-0.421D-05-0.334D-03-0.534D-03-0.853D-03
 Coeff-Com:  0.387D-03 0.107D-01 0.907D-01 0.189D+00 0.711D+00
 Coeff:      0.681D-06-0.390D-05-0.421D-05-0.334D-03-0.534D-03-0.853D-03
 Coeff:      0.387D-03 0.107D-01 0.907D-01 0.189D+00 0.711D+00
 Gap=     0.177 Goal=   None    Shift=    0.000
 RMSDP=2.23D-07 MaxDP=4.17D-06 DE=-9.34D-08 OVMax= 1.61D-05

 Cycle  12  Pass 1  IDiag  1:
 RMSU=  1.07D-07    CP:  5.12D-01  9.05D-01  5.72D-01  7.97D-01  5.86D-01
                    CP:  6.43D-01  7.66D-01  6.47D-01  7.86D-01  6.33D-01
                    CP:  7.80D-01
 E= -942.969715474287     Delta-E=       -0.000000001110 Rises=F Damp=F
 DIIS: error= 1.29D-06 at cycle  12 NSaved=  12.
 NSaved=12 IEnMin=12 EnMin= -942.969715474287     IErMin=12 ErrMin= 1.29D-06
 ErrMax= 1.29D-06 EMaxC= 1.00D-01 BMatC= 4.02D-10 BMatP= 1.15D-09
 IDIUse=1 WtCom= 1.00D+00 WtEn= 0.00D+00
 Coeff-Com:  0.257D-06 0.241D-05 0.720D-05-0.948D-04-0.189D-03-0.673D-03
 Coeff-Com: -0.226D-02-0.212D-02 0.125D-01 0.462D-01 0.407D+00 0.539D+00
 Coeff:      0.257D-06 0.241D-05 0.720D-05-0.948D-04-0.189D-03-0.673D-03
 Coeff:     -0.226D-02-0.212D-02 0.125D-01 0.462D-01 0.407D+00 0.539D+00
 Gap=     0.177 Goal=   None    Shift=    0.000
 RMSDP=7.49D-08 MaxDP=1.69D-06 DE=-1.11D-09 OVMax= 8.11D-06

 Cycle  13  Pass 1  IDiag  1:
 RMSU=  3.68D-08    CP:  5.12D-01  9.05D-01  5.72D-01  7.97D-01  5.86D-01
                    CP:  6.43D-01  7.66D-01  6.47D-01  7.89D-01  6.37D-01
                    CP:  8.20D-01  7.26D-01
 E= -942.969715474643     Delta-E=       -0.000000000356 Rises=F Damp=F
 DIIS: error= 4.28D-07 at cycle  13 NSaved=  13.
 NSaved=13 IEnMin=13 EnMin= -942.969715474643     IErMin=13 ErrMin= 4.28D-07
 ErrMax= 4.28D-07 EMaxC= 1.00D-01 BMatC= 2.99D-11 BMatP= 4.02D-10
 IDIUse=1 WtCom= 1.00D+00 WtEn= 0.00D+00
 Coeff-Com:  0.446D-07 0.153D-05 0.395D-05-0.145D-04-0.417D-04-0.255D-03
 Coeff-Com: -0.117D-02-0.217D-02-0.276D-02 0.448D-02 0.142D+00 0.276D+00
 Coeff-Com:  0.584D+00
 Coeff:      0.446D-07 0.153D-05 0.395D-05-0.145D-04-0.417D-04-0.255D-03
 Coeff:     -0.117D-02-0.217D-02-0.276D-02 0.448D-02 0.142D+00 0.276D+00
 Coeff:      0.584D+00
 Gap=     0.177 Goal=   None    Shift=    0.000
 RMSDP=2.57D-08 MaxDP=6.13D-07 DE=-3.56D-10 OVMax= 2.28D-06

 Cycle  14  Pass 1  IDiag  1:
 RMSU=  1.14D-08    CP:  5.12D-01  9.05D-01  5.72D-01  7.97D-01  5.86D-01
                    CP:  6.43D-01  7.66D-01  6.47D-01  7.89D-01  6.36D-01
                    CP:  8.34D-01  7.46D-01  6.80D-01
 E= -942.969715474678     Delta-E=       -0.000000000035 Rises=F Damp=F
 DIIS: error= 1.47D-07 at cycle  14 NSaved=  14.
 NSaved=14 IEnMin=14 EnMin= -942.969715474678     IErMin=14 ErrMin= 1.47D-07
 ErrMax= 1.47D-07 EMaxC= 1.00D-01 BMatC= 3.57D-12 BMatP= 2.99D-11
 IDIUse=1 WtCom= 1.00D+00 WtEn= 0.00D+00
 Coeff-Com:  0.269D-08 0.477D-06 0.128D-05 0.282D-05-0.107D-05-0.618D-04
 Coeff-Com: -0.374D-03-0.922D-03-0.284D-02-0.272D-02 0.310D-01 0.867D-01
 Coeff-Com:  0.312D+00 0.577D+00
 Coeff:      0.269D-08 0.477D-06 0.128D-05 0.282D-05-0.107D-05-0.618D-04
 Coeff:     -0.374D-03-0.922D-03-0.284D-02-0.272D-02 0.310D-01 0.867D-01
 Coeff:      0.312D+00 0.577D+00
 Gap=     0.177 Goal=   None    Shift=    0.000
 RMSDP=7.85D-09 MaxDP=2.59D-07 DE=-3.46D-11 OVMax= 8.43D-07

 SCF Done:  E(RB3LYP) =  -942.969715475     A.U. after   14 cycles
             Convg  =    0.7853D-08             -V/T =  2.0025
 KE= 9.406415217821D+02 PE=-5.735288903892D+03 EE= 2.081695369512D+03
 Leave Link  502 at Sun Oct  9 18:18:42 2022, MaxMem= 1610612736 cpu:     620.1
 (Enter /dataV/g09/l601.exe)
 Copying SCF densities to generalized density rwf, IOpCl= 0 IROHF=0.

 **********************************************************************

            Population analysis using the SCF density.

 **********************************************************************

 Orbital symmetries:
 BldTbl:  Degeneracy threshold= 1.00D-02
       Occupied  (A) (A) (A) (A) (A) (A) (A) (A) (A) (A) (A) (A)
                 (A) (A) (A) (A) (A) (A) (A) (A) (A) (A) (A) (A)
                 (A) (A) (A) (A) (A) (A) (A) (A) (A) (A) (A) (A)
                 (A) (A) (A) (A) (A) (A) (A) (A) (A) (A) (A) (A)
                 (A) (A) (A) (A) (A) (A) (A) (A) (A) (A) (A) (A)
                 (A) (A) (A) (A) (A) (A) (A) (A) (A) (A) (A) (A)
                 (A) (A) (A) (A) (A) (A) (A) (A)
       Virtual   (A) (A) (A) (A) (A) (A) (A) (A) (A) (A) (A) (A)
                 (A) (A) (A) (A) (A) (A) (A) (A) (A) (A) (A) (A)
                 (A) (A) (A) (A) (A) (A) (A) (A) (A) (A) (A) (A)
                 (A) (A) (A) (A) (A) (A) (A) (A) (A) (A) (A) (A)
                 (A) (A) (A) (A) (A) (A) (A) (A) (A) (A) (A) (A)
                 (A) (A) (A) (A) (A) (A) (A) (A) (A) (A) (A) (A)
                 (A) (A) (A) (A) (A) (A) (A) (A) (A) (A) (A) (A)
                 (A) (A) (A) (A) (A) (A) (A) (A) (A) (A) (A) (A)
                 (A) (A) (A) (A) (A) (A) (A) (A) (A) (A) (A) (A)
                 (A) (A) (A) (A) (A) (A) (A) (A) (A) (A) (A) (A)
                 (A) (A) (A) (A) (A) (A) (A) (A) (A) (A) (A) (A)
                 (A) (A) (A) (A) (A) (A) (A) (A) (A) (A) (A) (A)
                 (A) (A) (A) (A) (A) (A) (A) (A) (A) (A) (A) (A)
                 (A) (A) (A) (A) (A) (A) (A) (A) (A) (A) (A) (A)
                 (A) (A) (A) (A) (A) (A) (A) (A) (A) (A) (A) (A)
                 (A) (A) (A) (A) (A) (A) (A) (A) (A) (A) (A) (A)
                 (A) (A) (A) (A) (A) (A) (A) (A) (A) (A) (A) (A)
                 (A) (A) (A) (A) (A) (A) (A) (A) (A) (A) (A) (A)
                 (A) (A) (A) (A) (A) (A) (A) (A) (A) (A) (A) (A)
                 (A) (A) (A) (A) (A) (A) (A) (A) (A) (A) (A) (A)
                 (A) (A) (A) (A) (A) (A) (A) (A) (A) (A) (A) (A)
                 (A) (A) (A) (A) (A) (A) (A) (A) (A) (A) (A) (A)
                 (A) (A) (A) (A) (A) (A) (A) (A) (A) (A) (A)
 The electronic state is 1-A.
 Alpha  occ. eigenvalues --  -19.12829 -19.12298 -14.29726 -10.23654 -10.22507
 Alpha  occ. eigenvalues --  -10.22230 -10.19806 -10.19375 -10.19202 -10.19135
 Alpha  occ. eigenvalues --  -10.18731 -10.17931 -10.17926 -10.17779 -10.17737
 Alpha  occ. eigenvalues --  -10.17714 -10.17669 -10.17547 -10.17542 -10.17460
 Alpha  occ. eigenvalues --  -10.17066 -10.16735  -1.05447  -1.03993  -0.93806
 Alpha  occ. eigenvalues --   -0.87429  -0.85510  -0.80790  -0.78629  -0.77298
 Alpha  occ. eigenvalues --   -0.75792  -0.75240  -0.73066  -0.72243  -0.66990
 Alpha  occ. eigenvalues --   -0.65831  -0.63256  -0.62811  -0.61874  -0.59188
 Alpha  occ. eigenvalues --   -0.57624  -0.57354  -0.54738  -0.53882  -0.52220
 Alpha  occ. eigenvalues --   -0.50829  -0.50374  -0.48859  -0.48156  -0.47381
 Alpha  occ. eigenvalues --   -0.47034  -0.46710  -0.44830  -0.44383  -0.43631
 Alpha  occ. eigenvalues --   -0.42724  -0.42549  -0.41770  -0.41101  -0.40237
 Alpha  occ. eigenvalues --   -0.39260  -0.39037  -0.38665  -0.37158  -0.36883
 Alpha  occ. eigenvalues --   -0.36548  -0.35848  -0.35186  -0.34963  -0.34375
 Alpha  occ. eigenvalues --   -0.33825  -0.32109  -0.31632  -0.28478  -0.27953
 Alpha  occ. eigenvalues --   -0.27583  -0.25864  -0.25001  -0.22530  -0.21215
 Alpha virt. eigenvalues --   -0.03516  -0.02164  -0.00036   0.02299   0.03172
 Alpha virt. eigenvalues --    0.03670   0.04409   0.04659   0.05666   0.06570
 Alpha virt. eigenvalues --    0.07099   0.07893   0.08049   0.09124   0.09618
 Alpha virt. eigenvalues --    0.09840   0.11152   0.11499   0.11973   0.12300
 Alpha virt. eigenvalues --    0.12546   0.13419   0.13978   0.14721   0.15080
 Alpha virt. eigenvalues --    0.16773   0.17846   0.18491   0.18737   0.19269
 Alpha virt. eigenvalues --    0.19732   0.20762   0.20921   0.22037   0.22827
 Alpha virt. eigenvalues --    0.23264   0.23958   0.24844   0.25588   0.25692
 Alpha virt. eigenvalues --    0.26786   0.27707   0.28652   0.28874   0.29888
 Alpha virt. eigenvalues --    0.31165   0.31957   0.32942   0.33848   0.34363
 Alpha virt. eigenvalues --    0.35189   0.36010   0.36656   0.37717   0.37995
 Alpha virt. eigenvalues --    0.38774   0.39208   0.39354   0.39669   0.40181
 Alpha virt. eigenvalues --    0.40556   0.40835   0.41708   0.42392   0.43218
 Alpha virt. eigenvalues --    0.43425   0.43721   0.44503   0.44732   0.45322
 Alpha virt. eigenvalues --    0.46181   0.46479   0.47031   0.47217   0.47886
 Alpha virt. eigenvalues --    0.48772   0.49212   0.50563   0.50616   0.51114
 Alpha virt. eigenvalues --    0.51405   0.51942   0.52800   0.53484   0.53817
 Alpha virt. eigenvalues --    0.54780   0.55117   0.55380   0.55525   0.56882
 Alpha virt. eigenvalues --    0.57462   0.58291   0.58644   0.59151   0.59902
 Alpha virt. eigenvalues --    0.60195   0.60762   0.61193   0.61723   0.61761
 Alpha virt. eigenvalues --    0.62513   0.62698   0.63102   0.63524   0.64074
 Alpha virt. eigenvalues --    0.64413   0.64918   0.65532   0.65754   0.66275
 Alpha virt. eigenvalues --    0.66609   0.67297   0.67944   0.70476   0.70612
 Alpha virt. eigenvalues --    0.72155   0.73831   0.74115   0.75091   0.75373
 Alpha virt. eigenvalues --    0.76480   0.77069   0.77453   0.79621   0.80140
 Alpha virt. eigenvalues --    0.80536   0.80598   0.81866   0.82917   0.84455
 Alpha virt. eigenvalues --    0.86342   0.86476   0.87125   0.88307   0.90073
 Alpha virt. eigenvalues --    0.90716   0.91690   0.92851   0.94219   0.95697
 Alpha virt. eigenvalues --    0.96458   0.97240   0.98095   1.00632   1.02037
 Alpha virt. eigenvalues --    1.03217   1.05010   1.07781   1.08708   1.10177
 Alpha virt. eigenvalues --    1.10932   1.12854   1.14219   1.18418   1.20705
 Alpha virt. eigenvalues --    1.24759   1.25074   1.26425   1.30041   1.31994
 Alpha virt. eigenvalues --    1.39993   1.55777   1.59592   1.72865   2.17324
 Alpha virt. eigenvalues --    2.18188   2.20496   2.21713   2.23346   2.25423
 Alpha virt. eigenvalues --    2.26229   2.26706   2.27555   2.28858   2.29915
 Alpha virt. eigenvalues --    2.30136   2.30877   2.32615   2.33250   2.35644
 Alpha virt. eigenvalues --    2.36405   2.38844   2.40017   2.43894   2.49013
 Alpha virt. eigenvalues --    2.51410   2.52292   2.53102   2.54696   2.57571
 Alpha virt. eigenvalues --    2.59726   2.61081   2.64945   2.65960   2.70651
 Alpha virt. eigenvalues --    2.71809   2.72833   2.73962   2.74630   2.75640
 Alpha virt. eigenvalues --    2.75886   2.76730   2.77704   2.78841   2.82196
 Alpha virt. eigenvalues --    2.83338   2.84679   2.85296   2.85629   2.87247
 Alpha virt. eigenvalues --    2.87672   2.88592   2.90695   2.92337   2.93229
 Alpha virt. eigenvalues --    2.94839   2.96853   2.98613   2.99582   3.00434
 Alpha virt. eigenvalues --    3.05431   3.06031   3.06314   3.10261   3.12219
[...]
 9631 Fit       0.006346
 9632 Fit       0.003826
 9633 Fit       0.000282
 9634 Fit       0.014985
 9635 Fit       0.016310
 9636 Fit       0.003008
 9637 Fit      -0.002840
 9638 Fit       0.002847
 9639 Fit      -0.014790
 9640 Fit      -0.007500
 9641 Fit      -0.008257
 9642 Fit      -0.009128
 9643 Fit      -0.010254
 9644 Fit      -0.001701
 9645 Fit      -0.002974
 9646 Fit      -0.004024
 9647 Fit      -0.005038
 9648 Fit      -0.006136
 9649 Fit      -0.007418
 9650 Fit       0.001959
 9651 Fit       0.000544
 9652 Fit      -0.000582
 9653 Fit      -0.001583
 9654 Fit      -0.002570
 9655 Fit      -0.003619
 9656 Fit      -0.004800
 9657 Fit       0.004101
 9658 Fit       0.002838
 9659 Fit       0.001820
 9660 Fit       0.000928
 9661 Fit       0.000088
 9662 Fit      -0.000754
 9663 Fit      -0.001633
 9664 Fit      -0.002583
 9665 Fit      -0.003646
 9666 Fit       0.006078
 9667 Fit       0.004909
 9668 Fit       0.003978
 9669 Fit       0.003186
 9670 Fit       0.002473
 9671 Fit       0.001797
 9672 Fit       0.001136
 9673 Fit       0.000479
 9674 Fit      -0.000172
 9675 Fit      -0.000806
 9676 Fit       0.005393
 9677 Fit       0.004789
 9678 Fit       0.004228
 9679 Fit       0.003695
 9680 Fit       0.003179
 9681 Fit       0.002675
 9682 Fit       0.002189
 9683 Fit       0.001746
 9684 Fit       0.001392
 9685 Fit       0.001212
 9686 Fit       0.004470
 9687 Fit       0.004481
 9688 Fit       0.004327
 9689 Fit       0.004082
 9690 Fit       0.003783
 9691 Fit       0.003459
 9692 Fit       0.003141
 9693 Fit       0.002877
 9694 Fit       0.002745
 9695 Fit       0.002890
 9696 Fit       0.000491
 9697 Fit       0.002177
 9698 Fit       0.003102
 9699 Fit       0.003565
 9700 Fit       0.003746
 9701 Fit       0.003756
 9702 Fit       0.003666
 9703 Fit       0.003538
 9704 Fit       0.003441
 9705 Fit       0.003473
 9706 Fit       0.003804
 9707 Fit      -0.001122
 9708 Fit       0.000884
 9709 Fit       0.002100
 9710 Fit       0.002795
 9711 Fit       0.003160
 9712 Fit       0.003327
 9713 Fit       0.003406
 9714 Fit       0.003513
 9715 Fit       0.003811
 9716 Fit      -0.002134
 9717 Fit      -0.000035
 9718 Fit       0.001302
 9719 Fit       0.002109
 9720 Fit       0.002582
 9721 Fit       0.002884
 9722 Fit       0.003183
 9723 Fit       0.003690
 9724 Fit      -0.002654
 9725 Fit      -0.000570
 9726 Fit       0.000746
 9727 Fit       0.001537
 9728 Fit       0.002038
 9729 Fit       0.002475
 9730 Fit      -0.002729
 9731 Fit      -0.000772
 9732 Fit       0.000288
 9733 Fit      -0.004427
 9734 Fit      -0.004562
 9735 Fit      -0.001344
 9736 Fit      -0.001655
 9737 Fit      -0.001826
 9738 Fit      -0.001944
 9739 Fit      -0.002047
 9740 Fit      -0.002138
 9741 Fit      -0.002189
 9742 Fit       0.001781
 9743 Fit       0.000950
 9744 Fit       0.000505
 9745 Fit       0.000263
 9746 Fit       0.000124
 9747 Fit       0.000039
 9748 Fit      -0.000011
 9749 Fit      -0.000011
 9750 Fit       0.000081
 9751 Fit       0.000356
 9752 Fit       0.003178
 9753 Fit       0.002456
 9754 Fit       0.002046
 9755 Fit       0.001815
 9756 Fit       0.001688
 9757 Fit       0.001620
 9758 Fit       0.001595
 9759 Fit       0.001621
 9760 Fit       0.001732
 9761 Fit       0.001996
 9762 Fit       0.002534
 9763 Fit       0.003560
 9764 Fit       0.004200
 9765 Fit       0.003575
 9766 Fit       0.003189
 9767 Fit       0.002968
 9768 Fit       0.002849
 9769 Fit       0.002793
 9770 Fit       0.002779
 9771 Fit       0.002806
 9772 Fit       0.002896
 9773 Fit       0.003098
 9774 Fit       0.003496
 9775 Fit       0.004233
 9776 Fit       0.004021
 9777 Fit       0.003845
 9778 Fit       0.003693
 9779 Fit       0.003602
 9780 Fit       0.003563
 9781 Fit       0.003559
 9782 Fit       0.003579
 9783 Fit       0.003627
 9784 Fit       0.003723
 9785 Fit       0.003909
 9786 Fit       0.004256
 9787 Fit       0.004871
 9788 Fit       0.005903
 9789 Fit       0.002905
 9790 Fit       0.003390
 9791 Fit       0.003627
 9792 Fit       0.003765
 9793 Fit       0.003864
 9794 Fit       0.003946
 9795 Fit       0.004018
 9796 Fit       0.004091
 9797 Fit       0.004184
 9798 Fit       0.004329
 9799 Fit       0.004575
 9800 Fit       0.004981
 9801 Fit       0.005594
 9802 Fit       0.001537
 9803 Fit       0.002598
 9804 Fit       0.003229
 9805 Fit       0.003621
 9806 Fit       0.003880
 9807 Fit       0.004059
 9808 Fit       0.004185
 9809 Fit       0.004283
 9810 Fit       0.004381
 9811 Fit       0.004507
 9812 Fit       0.004679
 9813 Fit       0.004857
 9814 Fit       0.004858
 9815 Fit       0.000101
 9816 Fit       0.001628
 9817 Fit       0.002615
 9818 Fit       0.003246
 9819 Fit       0.003649
 9820 Fit       0.003901
 9821 Fit       0.004046
 9822 Fit       0.004113
 9823 Fit       0.004115
 9824 Fit       0.004028
 9825 Fit       0.003738
 9826 Fit       0.002968
 9827 Fit      -0.001004
 9828 Fit       0.000818
 9829 Fit       0.002051
 9830 Fit       0.002830
 9831 Fit       0.003285
 9832 Fit       0.003499
 9833 Fit       0.003511
 9834 Fit       0.003304
 9835 Fit       0.002765
 9836 Fit       0.001642
 9837 Fit      -0.001703
 9838 Fit       0.000315
 9839 Fit       0.001682
 9840 Fit       0.002411
 9841 Fit       0.002606
 9842 Fit       0.002276
 9843 Fit       0.001263
 9844 Fit      -0.000642
 9845 Fit      -0.002078
 9846 Fit      -0.000102
 9847 Fit       0.001186
 9848 Fit       0.001027
 9849 Fit      -0.000627
 9850 Fit      -0.002485
 9851 Fit      -0.000426
 9852 Fit      -0.002840
 9853 Fit      -0.001480
 9854 Fit      -0.001403
 9855 Fit       0.000026
 9856 Fit       0.001413
 9857 Fit       0.000000
 9858 Fit       0.001173
 9859 Fit       0.002411
 9860 Fit       0.003765
 9861 Fit       0.001936
 9862 Fit       0.002718
 9863 Fit       0.003697
 9864 Fit       0.004861
 9865 Fit       0.006274
 9866 Fit       0.003750
 9867 Fit       0.003985
 9868 Fit       0.004618
 9869 Fit       0.005528
 9870 Fit       0.006699
 9871 Fit       0.008206
 9872 Fit       0.005201
 9873 Fit       0.005579
 9874 Fit       0.006312
 9875 Fit       0.007332
 9876 Fit       0.008658
 9877 Fit       0.005941
 9878 Fit       0.006117
 9879 Fit       0.006670
 9880 Fit       0.007492
 9881 Fit       0.008543
 9882 Fit       0.006142
 9883 Fit       0.006146
 9884 Fit       0.006544
 9885 Fit       0.007190
 9886 Fit       0.007979
 9887 Fit       0.008791
 9888 Fit       0.005572
 9889 Fit       0.005660
 9890 Fit       0.005994
 9891 Fit       0.006483
 9892 Fit       0.006990
 9893 Fit       0.007309
 9894 Fit       0.004108
 9895 Fit       0.004686
 9896 Fit       0.005158
 9897 Fit       0.005528
 9898 Fit       0.005597
 9899 Fit       0.005024
 9900 Fit       0.003451
 9901 Fit       0.000838
 9902 Fit      -0.002364
 9903 Fit       0.002511
 9904 Fit       0.003529
 9905 Fit       0.003914
 9906 Fit       0.003518
 9907 Fit       0.001961
 9908 Fit      -0.000738
 9909 Fit       0.000908
 9910 Fit       0.001869
 9911 Fit       0.000606
 9912 Fit      -0.000534
 9913 Fit      -0.001894
 9914 Fit      -0.001535
 9915 Fit       0.001603
 9916 Fit       0.001522
 9917 Fit      -0.000543
 9918 Fit      -0.003876
 9919 Fit      -0.000326
 9920 Fit       0.000661
 9921 Fit       0.003406
 9922 Fit       0.004483
 9923 Fit       0.003821
 9924 Fit       0.001108
 9925 Fit      -0.002754
 9926 Fit      -0.006461
 9927 Fit       0.000541
 9928 Fit       0.000790
 9929 Fit       0.001804
 9930 Fit       0.000219
 9931 Fit       0.000394
 9932 Fit       0.002106
 9933 Fit      -0.001929
 9934 Fit      -0.004198
 9935 Fit      -0.001939
 9936 Fit      -0.001036
 9937 Fit      -0.002415
 9938 Fit      -0.003763
 9939 Fit      -0.003108
 9940 Fit      -0.001334
 9941 Fit      -0.000550
 9942 Fit      -0.000466
 9943 Fit      -0.001266
 9944 Fit      -0.002680
 9945 Fit      -0.002382
 9946 Fit      -0.000641
 9947 Fit       0.000298
 9948 Fit       0.000467
 9949 Fit       0.000115
 9950 Fit      -0.000325
 9951 Fit      -0.000634
 9952 Fit      -0.001196
 9953 Fit      -0.001426
 9954 Fit       0.000131
 9955 Fit       0.001013
 9956 Fit       0.001316
 9957 Fit       0.001162
 9958 Fit       0.000696
 9959 Fit       0.000125
 9960 Fit      -0.000744
 9961 Fit      -0.000617
 9962 Fit      -0.000338
 9963 Fit      -0.001033
 9964 Fit       0.000607
 9965 Fit       0.001564
 9966 Fit       0.001989
 9967 Fit       0.001997
 9968 Fit       0.001662
 9969 Fit       0.001052
 9970 Fit       0.000289
 9971 Fit      -0.000403
 9972 Fit      -0.001877
 9973 Fit      -0.001319
 9974 Fit      -0.000095
 9975 Fit       0.000804
 9976 Fit       0.001980
 9977 Fit       0.002545
 9978 Fit       0.002693
 9979 Fit       0.002527
 9980 Fit       0.002079
 9981 Fit       0.001359
 9982 Fit       0.000402
 9983 Fit      -0.000667
 9984 Fit      -0.001563
 9985 Fit      -0.003850
 9986 Fit      -0.002940
 9987 Fit      -0.000717
 9988 Fit       0.002705
 9989 Fit       0.003257
 9990 Fit       0.003377
 9991 Fit       0.003237
 9992 Fit       0.002899
 9993 Fit       0.002357
 9994 Fit       0.001575
 9995 Fit       0.000522
 9996 Fit      -0.000792
 9997 Fit      -0.002229
 9998 Fit      -0.003439
 9999 Fit      -0.006614
 **** Fit      -0.005379
 **** Fit       0.004231
 **** Fit       0.003827
 **** Fit       0.003347
 **** Fit       0.002759
 **** Fit       0.001997
 **** Fit       0.000980
 **** Fit      -0.000373
 **** Fit      -0.002094
 **** Fit      -0.004068
 **** Fit      -0.005860
 **** Fit      -0.009629
 **** Fit       0.004478
 **** Fit       0.003722
 **** Fit       0.003023
 **** Fit       0.002272
 **** Fit       0.001359
 **** Fit       0.000166
 **** Fit      -0.001426
 **** Fit      -0.003498
 **** Fit      -0.005979
 **** Fit      -0.008396
 **** Fit       0.004305
 **** Fit       0.003315
 **** Fit       0.002491
 **** Fit       0.001666
 **** Fit       0.000701
 **** Fit      -0.000544
 **** Fit      -0.002215
 **** Fit      -0.004436
 **** Fit      -0.007189
 **** Fit      -0.010009
 **** Fit       0.002946
 **** Fit       0.001977
 **** Fit       0.001131
 **** Fit       0.000223
 **** Fit      -0.000903
 **** Fit      -0.002402
 **** Fit      -0.004415
 **** Fit      -0.006959
 **** Fit       0.001248
 **** Fit       0.000390
 **** Fit      -0.000400
 **** Fit      -0.001294
 **** Fit      -0.002433
 **** Fit      -0.003918
 **** Fit      -0.005734
 **** Fit      -0.002173
 **** Fit      -0.002901
 **** Fit      -0.001991
 **** Fit      -0.000284
 **** Fit       0.000680
 **** Fit      -0.001832
 **** Fit      -0.000078
 **** Fit       0.001126
 **** Fit       0.001906
 **** Fit       0.002408
 **** Fit       0.002814
 **** Fit      -0.002438
 **** Fit      -0.000457
 **** Fit       0.000996
 **** Fit       0.002024
 **** Fit       0.002719
 **** Fit       0.003173
 **** Fit       0.003498
 **** Fit       0.003856
 **** Fit      -0.001693
 **** Fit       0.000169
 **** Fit       0.001544
 **** Fit       0.002539
 **** Fit       0.003230
 **** Fit       0.003681
 **** Fit       0.003953
 **** Fit       0.004128
 **** Fit       0.004329
 **** Fit       0.004762
 **** Fit      -0.000763
 **** Fit       0.000890
 **** Fit       0.002116
 **** Fit       0.003017
 **** Fit       0.003659
 **** Fit       0.004086
 **** Fit       0.004336
 **** Fit       0.004448
 **** Fit       0.004473
 **** Fit       0.004489
 **** Fit       0.004625
 **** Fit       0.000429
 **** Fit       0.001842
 **** Fit       0.002872
 **** Fit       0.003625
 **** Fit       0.004156
 **** Fit       0.004499
 **** Fit       0.004678
 **** Fit       0.004716
 **** Fit       0.004640
 **** Fit       0.004494
 **** Fit       0.004341
 **** Fit       0.004295
 **** Fit       0.001838
 **** Fit       0.002873
 **** Fit       0.003622
 **** Fit       0.004168
 **** Fit       0.004550
 **** Fit       0.004786
 **** Fit       0.004884
 **** Fit       0.004852
 **** Fit       0.004701
 **** Fit       0.004449
 **** Fit       0.004124
 **** Fit       0.003771
 **** Fit       0.003460
 **** Fit       0.003778
 **** Fit       0.004219
 **** Fit       0.004549
 **** Fit       0.004786
 **** Fit       0.004928
 **** Fit       0.004966
 **** Fit       0.004895
 **** Fit       0.004708
 **** Fit       0.004408
 **** Fit       0.003999
 **** Fit       0.003492
 **** Fit       0.002905
 **** Fit       0.002261
 **** Fit       0.005177
 **** Fit       0.005104
 **** Fit       0.005074
 **** Fit       0.005034
 **** Fit       0.004940
 **** Fit       0.004763
 **** Fit       0.004480
 **** Fit       0.004077
 **** Fit       0.003544
 **** Fit       0.002876
 **** Fit       0.002066
 **** Fit       0.001096
 **** Fit       0.005546
 **** Fit       0.005183
 **** Fit       0.004897
 **** Fit       0.004598
 **** Fit       0.004227
 **** Fit       0.003744
 **** Fit       0.003120
 **** Fit       0.002330
 **** Fit       0.001348
 **** Fit       0.000130
 **** Fit       0.005580
 **** Fit       0.004911
 **** Fit       0.004393
 **** Fit       0.003889
 **** Fit       0.003313
 **** Fit       0.002608
 **** Fit       0.001726
 **** Fit       0.000622
 **** Fit      -0.000763
 **** Fit       0.004879
 **** Fit       0.003985
 **** Fit       0.003240
 **** Fit       0.002465
 **** Fit       0.001549
 **** Fit       0.000407
 **** Fit      -0.001042
 **** Fit       0.002384
 **** Fit       0.001388
 **** Fit       0.000239
 **** Fit      -0.001430
 **** Fit      -0.000348
 **** Fit       0.000644
 **** Fit      -0.001732
 **** Fit      -0.000580
 **** Fit       0.000394
 **** Fit       0.001238
 **** Fit       0.002010
 **** Fit       0.002789
 **** Fit       0.003709
 **** Fit      -0.000697
 **** Fit       0.000301
 **** Fit       0.001170
 **** Fit       0.001925
 **** Fit       0.002587
 **** Fit       0.003185
 **** Fit       0.003764
 **** Fit       0.004399
 **** Fit       0.005216
 **** Fit       0.000684
 **** Fit       0.001352
 **** Fit       0.002006
 **** Fit       0.002617
 **** Fit       0.003168
 **** Fit       0.003656
 **** Fit       0.004085
 **** Fit       0.004476
 **** Fit       0.004863
 **** Fit       0.005300
 **** Fit       0.005865
 **** Fit       0.002625
 **** Fit       0.002829
 **** Fit       0.003174
 **** Fit       0.003571
 **** Fit       0.003965
 **** Fit       0.004325
 **** Fit       0.004636
 **** Fit       0.004893
 **** Fit       0.005102
 **** Fit       0.005278
 **** Fit       0.005439
 **** Fit       0.005602
 **** Fit       0.004741
 **** Fit       0.004305
 **** Fit       0.004263
 **** Fit       0.004413
 **** Fit       0.004642
 **** Fit       0.004880
 **** Fit       0.005088
 **** Fit       0.005240
 **** Fit       0.005325
 **** Fit       0.005337
 **** Fit       0.005268
 **** Fit       0.005103
 **** Fit       0.004790
 **** Fit       0.004213
 **** Fit       0.005583
 **** Fit       0.005228
 **** Fit       0.005168
 **** Fit       0.005240
 **** Fit       0.005348
 **** Fit       0.005432
 **** Fit       0.005452
 **** Fit       0.005382
 **** Fit       0.005200
 **** Fit       0.004878
 **** Fit       0.004363
 **** Fit       0.003561
 **** Fit       0.006425
 **** Fit       0.005852
 **** Fit       0.005625
 **** Fit       0.005561
 **** Fit       0.005548
 **** Fit       0.005509
 **** Fit       0.005395
 **** Fit       0.005166
 **** Fit       0.004784
 **** Fit       0.004201
 **** Fit       0.003343
 **** Fit       0.002094
 **** Fit       0.006914
 **** Fit       0.006146
 **** Fit       0.005773
 **** Fit       0.005592
 **** Fit       0.005465
 **** Fit       0.005297
 **** Fit       0.005014
 **** Fit       0.004559
 **** Fit       0.003869
 **** Fit       0.002863
 **** Fit       0.001432
 **** Fit       0.006592
 **** Fit       0.005947
 **** Fit       0.005554
 **** Fit       0.005307
 **** Fit       0.005083
 **** Fit       0.004772
 **** Fit       0.004287
 **** Fit       0.003546
 **** Fit       0.002462
 **** Fit       0.000936
 **** Fit       0.005069
 **** Fit       0.004988
 **** Fit       0.004789
 **** Fit       0.004536
 **** Fit       0.004146
 **** Fit       0.003507
 **** Fit       0.002506
 **** Fit       0.001040
 **** Fit      -0.000961
 **** Fit       0.003252
 **** Fit       0.003653
 **** Fit       0.003495
 **** Fit       0.002887
 **** Fit       0.001717
 **** Fit      -0.000111
 **** Fit       0.001554
 **** Fit       0.002018
 **** Fit       0.000880
 **** Fit      -0.004012
 **** Fit      -0.003319
 **** Fit      -0.000106
 **** Fit      -0.000111
 **** Fit      -0.000208
 **** Fit       0.002636
 **** Fit       0.002413
 **** Fit       0.002258
 **** Fit       0.002249
 **** Fit       0.005196
 **** Fit       0.004678
 **** Fit       0.004342
 **** Fit       0.004200
 **** Fit       0.004321
 **** Fit       0.004873
 **** Fit       0.006831
 **** Fit       0.006167
 **** Fit       0.005779
 **** Fit       0.005660
 **** Fit       0.005884
 **** Fit       0.008386
 **** Fit       0.007458
 **** Fit       0.006891
 **** Fit       0.006621
 **** Fit       0.006669
 **** Fit       0.007127
 **** Fit       0.008300
 **** Fit       0.007580
 **** Fit       0.007145
 **** Fit       0.006964
 **** Fit       0.007034
 **** Fit       0.008810
 **** Fit       0.007909
 **** Fit       0.007278
 **** Fit       0.006837
 **** Fit       0.006497
 **** Fit       0.006078
 **** Fit       0.008751
 **** Fit       0.007806
 **** Fit       0.007029
 **** Fit       0.006334
 **** Fit       0.005572
 **** Fit       0.004481
 **** Fit       0.007641
 **** Fit       0.006838
 **** Fit       0.005959
 **** Fit       0.004912
 **** Fit       0.003460
 **** Fit       0.006048
 **** Fit       0.005806
 **** Fit       0.004876
 **** Fit       0.003390
 **** Fit       0.001217
 **** Fit      -0.000798
 **** Fit       0.001778
 **** Fit       0.003816
 **** Fit       0.003410
 **** Fit       0.001321
 **** Fit      -0.000891
 **** Fit       0.001530
 **** Fit      -0.003729
 **** Fit      -0.009764
 **** Fit      -0.007038
 **** Fit      -0.002054
 **** Fit       0.001364
 **** Fit       0.005588
 -----------------------------------------------------------------
 Leave Link  602 at Sun Oct  9 18:18:55 2022, MaxMem= 1610612736 cpu:       8.7
 (Enter /dataV/g09/l9999.exe)

 Test job not archived.
 1\1\GINC-A869AA4EB327\SP\RB3LYP\6-311G\C19H23N1O2\ROOT\09-Oct-2022\0\\
 #p b3lyp/6-311g gfinput iop(6/7=3) density guess=Read iop(6/50=1) iop(
 6/33=2) iop(6/42=6) pop=mk test units=(ang,deg)\\Title Card Required\\
 0,1\O,0,-3.675,-1.584,0.721\C,0,-2.858,-0.5,1.167\C,0,-1.587,-1.057,1.
 835\O,0,-0.769,0.028,2.282\C,0,0.41,-0.489,2.905\C,0,1.341,0.567,3.386
 \C,0,2.372,-0.176,4.279\C,0,2.629,-1.604,3.704\N,0,2.648,-1.492,2.283\
 C,0,1.223,-1.314,1.849\C,0,-2.464,0.376,-0.037\C,0,-3.276,1.453,-0.415
 \C,0,-2.919,2.249,-1.512\C,0,-1.748,1.969,-2.229\C,0,-0.935,0.892,-1.8
 51\C,0,0.351,0.584,-2.639\C,0,1.164,-0.493,-2.261\C,0,2.335,-0.773,-2.
 979\C,0,2.692,0.024,-4.076\C,0,1.878,1.1,-4.454\C,0,0.708,1.381,-3.736
 \C,0,-1.293,0.096,-0.754\H,0,-3.921,-2.13,1.471\H,0,-3.402,0.09,1.874\
 H,0,-1.861,-1.665,2.672\H,0,-1.042,-1.647,1.129\H,0,0.125,-1.081,3.75\
 H,0,0.874,1.34,3.959\H,0,1.795,1.003,2.52\H,0,2.01,-0.318,5.276\H,0,3.
 256,0.426,4.3\H,0,1.832,-2.273,3.955\H,0,3.546,-1.98,4.107\H,0,3.218,-
 0.7,2.061\H,0,0.724,-2.254,1.739\H,0,1.256,-0.81,0.906\H,0,-4.17,1.668
 ,0.133\H,0,-3.54,3.072,-1.801\H,0,-1.475,2.576,-3.067\H,0,0.892,-1.101
 ,-1.424\H,0,2.956,-1.595,-2.69\H,0,3.585,-0.19,-4.624\H,0,2.151,1.708,
 -5.291\H,0,0.087,2.203,-4.025\H,0,-0.672,-0.726,-0.465\\Version=EM64L-
 G09RevA.01\State=1-A\HF=-942.9697155\RMSD=7.853e-09\Dipole=0.2488772,0
 .0836736,1.0241142\Quadrupole=-2.1414769,-3.0458195,5.1872963,0.959311
 7,-5.7487322,-8.205799\PG=C01 [X(C19H23N1O2)]\\@


 The lyf so short, the craft so long to lerne.
                             -- Chaucer
 Job cpu time:  0 days  0 hours 10 minutes 47.2 seconds.
 File lengths (MBytes):  RWF=     72 Int=      0 D2E=      0 Chk=     10 Scr=      1
 Normal termination of Gaussian 09 at Sun Oct  9 18:18:55 2022.
