 Entering Gaussian System, Link 0=g09
 Input=compuesto2.gjf
 Output=compuesto2.log
 Initial command:
 /dataV/g09/l1.exe /tmp/Gau-6212.inp -scrdir=/tmp/
 Entering Link 1 = /dataV/g09/l1.exe PID=      6214.
  
 Copyright (c) 1988,1990,1992,1993,1995,1998,2003,2009, Gaussian, Inc.
                  All Rights Reserved.
  
 This is part of the Gaussian(R) 09 program.  It is based on
 the Gaussian(R) 03 system (copyright 2003, Gaussian, Inc.),
 the Gaussian(R) 98 system (copyright 1998, Gaussian, Inc.),
 the Gaussian(R) 94 system (copyright 1995, Gaussian, Inc.),
 the Gaussian 92(TM) system (copyright 1992, Gaussian, Inc.),
 the Gaussian 90(TM) system (copyright 1990, Gaussian, Inc.),
 the Gaussian 88(TM) system (copyright 1988, Gaussian, Inc.),
 the Gaussian 86(TM) system (copyright 1986, Carnegie Mellon
 University), and the Gaussian 82(TM) system (copyright 1983,
 Carnegie Mellon University). Gaussian is a federally registered
 trademark of Gaussian, Inc.
  
 This software contains proprietary and confidential information,
 including trade secrets, belonging to Gaussian, Inc.
  
 This software is provided under written license and may be
 used, copied, transmitted, or stored only in accord with that
 written license.
  
 The following legend is applicable only to US Government
 contracts under FAR:
  
                    RESTRICTED RIGHTS LEGEND
  
 Use, reproduction and disclosure by the US Government is
 subject to restrictions as set forth in subparagraphs (a)
 and (c) of the Commercial Computer Software - Restricted
 Rights clause in FAR 52.227-19.
  
 Gaussian, Inc.
 340 Quinnipiac St., Bldg. 40, Wallingford CT 06492
  
  
 ---------------------------------------------------------------
 Warning -- This program may not be used in any manner that
 competes with the business of Gaussian, Inc. or will provide
 assistance to any competitor of Gaussian, Inc.  The licensee
 of this program is prohibited from giving any competitor of
 Gaussian, Inc. access to this program.  By using this program,
 the user acknowledges that Gaussian, Inc. is engaged in the
 business of creating and licensing software in the field of
 computational chemistry and represents and warrants to the
 licensee that it is not a competitor of Gaussian, Inc. and that
 it will not use this program in any manner prohibited above.
 ---------------------------------------------------------------
  

 Cite this work as:
 Gaussian 09, Revision A.01,
 M. J. Frisch, G. W. Trucks, H. B. Schlegel, G. E. Scuseria, 
 M. A. Robb, J. R. Cheeseman, G. Scalmani, V. Barone, B. Mennucci, 
 G. A. Petersson, H. Nakatsuji, M. Caricato, X. Li, H. P. Hratchian, 
 A. F. Izmaylov, J. Bloino, G. Zheng, J. L. Sonnenberg, M. Hada, 
 M. Ehara, K. Toyota, R. Fukuda, J. Hasegawa, M. Ishida, T. Nakajima, 
 Y. Honda, O. Kitao, H. Nakai, T. Vreven, J. A. Montgomery, Jr., 
 J. E. Peralta, F. Ogliaro, M. Bearpark, J. J. Heyd, E. Brothers, 
 K. N. Kudin, V. N. Staroverov, R. Kobayashi, J. Normand, 
 K. Raghavachari, A. Rendell, J. C. Burant, S. S. Iyengar, J. Tomasi, 
 M. Cossi, N. Rega, J. M. Millam, M. Klene, J. E. Knox, J. B. Cross, 
 V. Bakken, C. Adamo, J. Jaramillo, R. Gomperts, R. E. Stratmann, 
 O. Yazyev, A. J. Austin, R. Cammi, C. Pomelli, J. W. Ochterski, 
 R. L. Martin, K. Morokuma, V. G. Zakrzewski, G. A. Voth, 
 P. Salvador, J. J. Dannenberg, S. Dapprich, A. D. Daniels, 
 O. Farkas, J. B. Foresman, J. V. Ortiz, J. Cioslowski, 
 and D. J. Fox, Gaussian, Inc., Wallingford CT, 2009.
 
 ******************************************
 Gaussian 09:  EM64L-G09RevA.01  8-May-2009
                 9-Oct-2022 
 ******************************************
 %nprocshared=3
 Will use up to    3 processors via shared memory.
 %mem=12GB
 %chk=compuesto2.chk
 -------------------------
 # opt b3lyp/sto-3g nosymm
 -------------------------
 1/14=-1,18=20,19=15,26=3,38=1/1,3;
 2/9=110,12=2,15=1,17=6,18=5,40=1/2;
 3/6=3,11=2,16=1,25=1,30=1,71=1,74=-5/1,2,3;
 4//1;
 5/5=2,38=5/2;
 6/7=2,8=2,9=2,10=2,28=1/1;
 7/30=1/1,2,3,16;
 1/14=-1,18=20,19=15/3(2);
 2/9=110,15=1/2;
 99//99;
 2/9=110,15=1/2;
 3/6=3,11=2,16=1,25=1,30=1,71=1,74=-5/1,2,3;
 4/5=5,16=3/1;
 5/5=2,38=5/2;
 7/30=1/1,2,3,16;
 1/14=-1,18=20,19=15/3(-5);
 2/9=110,15=1/2;
 6/7=2,8=2,9=2,10=2,19=2,28=1/1;
 99/9=1/99;
 -------------------
 Title Card Required
 -------------------
 Symbolic Z-matrix:
 Charge =  0 Multiplicity = 1
 O(PDBName=O1,ResName=UNL,ResNum=1) -3.717    -3.364     0.872 
 C(PDBName=C1,ResName=UNL,ResNum=1) -2.486    -1.271     0.908 
 C(PDBName=C2,ResName=UNL,ResNum=1) -1.149    -2.019     1.081 
 C(PDBName=C3,ResName=UNL,ResNum=1)  0.737    -0.836     2.554 
 C(PDBName=C4,ResName=UNL,ResNum=1)  1.488     0.455     2.549 
 C(PDBName=C5,ResName=UNL,ResNum=1)  1.703     0.792     4.054 
 C(PDBName=C6,ResName=UNL,ResNum=1)  1.915    -0.53      4.87 
 N(PDBName=N1,ResName=UNL,ResNum=1)  2.695    -1.411     4.054 
 C(PDBName=C7,ResName=UNL,ResNum=1)  1.777    -1.933     2.99 
 C(PDBName=C8,ResName=UNL,ResNum=1) -2.24      0.028     0.117 
 C(PDBName=C9,ResName=UNL,ResNum=1) -3.053     1.15      0.342 
 C(PDBName=C10,ResName=UNL,ResNum=1) -2.828     2.332    -0.379 
 C(PDBName=C11,ResName=UNL,ResNum=1) -1.791     2.392    -1.319 
 C(PDBName=C12,ResName=UNL,ResNum=1) -0.978     1.273    -1.541 
 C(PDBName=C13,ResName=UNL,ResNum=1)  0.167     1.346    -2.571 
 C(PDBName=C14,ResName=UNL,ResNum=1)  0.981     0.226    -2.803 
 C(PDBName=C15,ResName=UNL,ResNum=1)  2.016     0.295    -3.747 
 C(PDBName=C16,ResName=UNL,ResNum=1)  2.241     1.483    -4.457 
 C(PDBName=C17,ResName=UNL,ResNum=1)  1.431     2.605    -4.22 
 C(PDBName=C18,ResName=UNL,ResNum=1)  0.393     2.536    -3.275 
 C(PDBName=C19,ResName=UNL,ResNum=1) -1.202     0.087    -0.827 
 C(PDBName=C20,ResName=UNL,ResNum=1) -3.489    -2.156     0.139 
 C(PDBName=C21,ResName=UNL,ResNum=1)  0.166    -1.218     1.177 
 O(PDBName=O2,ResName=UNL,ResNum=1) -1.129    -3.276     1.144 
 O(PDBName=O3,ResName=UNL,ResNum=1)  0.555     1.439     4.634 
 H(PDBName=H1,ResName=UNL,ResNum=1) -4.077    -3.151     1.737 
 H(PDBName=H2,ResName=UNL,ResNum=1) -2.892    -1.035     1.872 
 H(PDBName=H5,ResName=UNL,ResNum=1) -0.069    -0.737     3.258 
 H(PDBName=H6,ResName=UNL,ResNum=1)  0.97      1.269     2.078 
 H(PDBName=H7,ResName=UNL,ResNum=1)  2.414     0.281     2.029 
 H(PDBName=H9,ResName=UNL,ResNum=1)  2.552     1.448     4.102 
 H(PDBName=H10,ResName=UNL,ResNum=1)  0.984    -1.022     5.061 
 H(PDBName=H11,ResName=UNL,ResNum=1)  2.385    -0.293     5.804 
 H(PDBName=H12,ResName=UNL,ResNum=1)  3.45     -0.868     3.672 
 H(PDBName=H13,ResName=UNL,ResNum=1)  1.216    -2.78      3.34 
 H(PDBName=H14,ResName=UNL,ResNum=1)  2.4      -2.224     2.165 
 H(PDBName=H15,ResName=UNL,ResNum=1) -3.842     1.106     1.06 
 H(PDBName=H16,ResName=UNL,ResNum=1) -3.448     3.189    -0.21 
 H(PDBName=H17,ResName=UNL,ResNum=1) -1.622     3.295    -1.868 
 H(PDBName=H18,ResName=UNL,ResNum=1)  0.813    -0.681    -2.261 
 H(PDBName=H19,ResName=UNL,ResNum=1)  2.639    -0.561    -3.927 
 H(PDBName=H20,ResName=UNL,ResNum=1)  3.03      1.532    -5.179 
 H(PDBName=H21,ResName=UNL,ResNum=1)  1.605     3.514    -4.76 
 H(PDBName=H22,ResName=UNL,ResNum=1) -0.227     3.391    -3.092 
 H(PDBName=H23,ResName=UNL,ResNum=1) -0.583    -0.77     -1.003 
 H(PDBName=H24,ResName=UNL,ResNum=1) -4.414    -1.629     0.025 
 H(PDBName=H24,ResName=UNL,ResNum=1) -3.091    -2.393    -0.823 
 H(PDBName=H24,ResName=UNL,ResNum=1)  0.718     1.636     5.558 
 

 GradGradGradGradGradGradGradGradGradGradGradGradGradGradGradGradGradGrad
 Berny optimization.
 Initialization pass.
                           ----------------------------
                           !    Initial Parameters    !
                           ! (Angstroms and Degrees)  !
 --------------------------                            --------------------------
 ! Name  Definition              Value          Derivative Info.                !
 --------------------------------------------------------------------------------
 ! R1    R(1,22)                 1.4313         estimate D2E/DX2                !
 ! R2    R(1,26)                 0.9608         estimate D2E/DX2                !
 ! R3    R(2,3)                  1.5418         estimate D2E/DX2                !
 ! R4    R(2,10)                 1.5406         estimate D2E/DX2                !
 ! R5    R(2,22)                 1.5429         estimate D2E/DX2                !
 ! R6    R(2,27)                 1.0723         estimate D2E/DX2                !
 ! R7    R(3,23)                 1.5427         estimate D2E/DX2                !
 ! R8    R(3,24)                 1.2587         estimate D2E/DX2                !
 ! R9    R(4,5)                  1.4936         estimate D2E/DX2                !
 ! R10   R(4,9)                  1.5732         estimate D2E/DX2                !
 ! R11   R(4,23)                 1.5389         estimate D2E/DX2                !
 ! R12   R(4,28)                 1.0747         estimate D2E/DX2                !
 ! R13   R(5,6)                  1.5572         estimate D2E/DX2                !
 ! R14   R(5,29)                 1.0737         estimate D2E/DX2                !
 ! R15   R(5,30)                 1.0762         estimate D2E/DX2                !
 ! R16   R(6,7)                  1.568          estimate D2E/DX2                !
 ! R17   R(6,25)                 1.4398         estimate D2E/DX2                !
 ! R18   R(6,31)                 1.074          estimate D2E/DX2                !
 ! R19   R(7,8)                  1.4319         estimate D2E/DX2                !
 ! R20   R(7,32)                 1.0702         estimate D2E/DX2                !
 ! R21   R(7,33)                 1.0721         estimate D2E/DX2                !
 ! R22   R(8,9)                  1.4991         estimate D2E/DX2                !
 ! R23   R(8,34)                 1.0054         estimate D2E/DX2                !
 ! R24   R(9,35)                 1.0745         estimate D2E/DX2                !
 ! R25   R(9,36)                 1.074          estimate D2E/DX2                !
 ! R26   R(10,11)                1.4037         estimate D2E/DX2                !
 ! R27   R(10,21)                1.4043         estimate D2E/DX2                !
 ! R28   R(11,12)                1.4027         estimate D2E/DX2                !
 ! R29   R(11,37)                1.0677         estimate D2E/DX2                !
 ! R30   R(12,13)                1.4009         estimate D2E/DX2                !
 ! R31   R(12,38)                1.0712         estimate D2E/DX2                !
 ! R32   R(13,14)                1.4009         estimate D2E/DX2                !
 ! R33   R(13,39)                1.0702         estimate D2E/DX2                !
 ! R34   R(14,15)                1.5418         estimate D2E/DX2                !
 ! R35   R(14,21)                1.4023         estimate D2E/DX2                !
 ! R36   R(15,16)                1.4039         estimate D2E/DX2                !
 ! R37   R(15,20)                1.401          estimate D2E/DX2                !
 ! R38   R(16,17)                1.4025         estimate D2E/DX2                !
 ! R39   R(16,40)                1.0699         estimate D2E/DX2                !
 ! R40   R(17,18)                1.4022         estimate D2E/DX2                !
 ! R41   R(17,41)                1.0739         estimate D2E/DX2                !
 ! R42   R(18,19)                1.404          estimate D2E/DX2                !
 ! R43   R(18,42)                1.0706         estimate D2E/DX2                !
 ! R44   R(19,20)                1.4054         estimate D2E/DX2                !
 ! R45   R(19,43)                1.0715         estimate D2E/DX2                !
 ! R46   R(20,44)                1.0719         estimate D2E/DX2                !
 ! R47   R(21,45)                1.0717         estimate D2E/DX2                !
 ! R48   R(22,46)                1.0707         estimate D2E/DX2                !
 ! R49   R(22,47)                1.0677         estimate D2E/DX2                !
 ! R50   R(25,48)                0.9587         estimate D2E/DX2                !
 ! A1    A(22,1,26)            109.4897         estimate D2E/DX2                !
 ! A2    A(3,2,10)             109.1601         estimate D2E/DX2                !
 ! A3    A(3,2,22)             109.9608         estimate D2E/DX2                !
 ! A4    A(3,2,27)             109.5265         estimate D2E/DX2                !
 ! A5    A(10,2,22)            109.3616         estimate D2E/DX2                !
 ! A6    A(10,2,27)            109.661          estimate D2E/DX2                !
 ! A7    A(22,2,27)            109.1581         estimate D2E/DX2                !
 ! A8    A(2,3,23)             119.6212         estimate D2E/DX2                !
 ! A9    A(2,3,24)             120.2575         estimate D2E/DX2                !
 ! A10   A(23,3,24)            120.1213         estimate D2E/DX2                !
 ! A11   A(5,4,9)              105.7387         estimate D2E/DX2                !
 ! A12   A(5,4,23)             113.4626         estimate D2E/DX2                !
 ! A13   A(5,4,28)             107.4376         estimate D2E/DX2                !
 ! A14   A(9,4,23)             108.6738         estimate D2E/DX2                !
 ! A15   A(9,4,28)             112.238          estimate D2E/DX2                !
 ! A16   A(23,4,28)            109.3137         estimate D2E/DX2                !
 ! A17   A(4,5,6)              104.6703         estimate D2E/DX2                !
 ! A18   A(4,5,29)             114.4693         estimate D2E/DX2                !
 ! A19   A(4,5,30)             107.1288         estimate D2E/DX2                !
 ! A20   A(6,5,29)             109.0577         estimate D2E/DX2                !
 ! A21   A(6,5,30)             112.5313         estimate D2E/DX2                !
 ! A22   A(29,5,30)            109.0108         estimate D2E/DX2                !
 ! A23   A(5,6,7)              109.8271         estimate D2E/DX2                !
 ! A24   A(5,6,25)             112.1175         estimate D2E/DX2                !
 ! A25   A(5,6,31)             106.5308         estimate D2E/DX2                !
 ! A26   A(7,6,25)             106.0841         estimate D2E/DX2                !
 ! A27   A(7,6,31)             112.6346         estimate D2E/DX2                !
 ! A28   A(25,6,31)            109.7447         estimate D2E/DX2                !
 ! A29   A(6,7,8)              107.207          estimate D2E/DX2                !
 ! A30   A(6,7,32)             111.2769         estimate D2E/DX2                !
 ! A31   A(6,7,33)             109.0426         estimate D2E/DX2                !
 ! A32   A(8,7,32)             107.0213         estimate D2E/DX2                !
 ! A33   A(8,7,33)             113.1824         estimate D2E/DX2                !
 ! A34   A(32,7,33)            109.1181         estimate D2E/DX2                !
 ! A35   A(7,8,9)              106.5668         estimate D2E/DX2                !
 ! A36   A(7,8,34)             107.0549         estimate D2E/DX2                !
 ! A37   A(9,8,34)             112.2253         estimate D2E/DX2                !
 ! A38   A(4,9,8)              111.0207         estimate D2E/DX2                !
 ! A39   A(4,9,35)             107.144          estimate D2E/DX2                !
 ! A40   A(4,9,36)             111.0703         estimate D2E/DX2                !
 ! A41   A(8,9,35)             111.2844         estimate D2E/DX2                !
 ! A42   A(8,9,36)             106.5194         estimate D2E/DX2                !
 ! A43   A(35,9,36)            109.8455         estimate D2E/DX2                !
 ! A44   A(2,10,11)            119.9441         estimate D2E/DX2                !
 ! A45   A(2,10,21)            119.906          estimate D2E/DX2                !
 ! A46   A(11,10,21)           120.1498         estimate D2E/DX2                !
 ! A47   A(10,11,12)           119.8837         estimate D2E/DX2                !
 ! A48   A(10,11,37)           120.188          estimate D2E/DX2                !
 ! A49   A(12,11,37)           119.9283         estimate D2E/DX2                !
 ! A50   A(11,12,13)           119.9814         estimate D2E/DX2                !
 ! A51   A(11,12,38)           120.0156         estimate D2E/DX2                !
 ! A52   A(13,12,38)           120.003          estimate D2E/DX2                !
 ! A53   A(12,13,14)           120.1139         estimate D2E/DX2                !
 ! A54   A(12,13,39)           119.817          estimate D2E/DX2                !
 ! A55   A(14,13,39)           120.0692         estimate D2E/DX2                !
 ! A56   A(13,14,15)           119.936          estimate D2E/DX2                !
 ! A57   A(13,14,21)           120.1439         estimate D2E/DX2                !
 ! A58   A(15,14,21)           119.9201         estimate D2E/DX2                !
 ! A59   A(14,15,16)           120.2133         estimate D2E/DX2                !
 ! A60   A(14,15,20)           119.7158         estimate D2E/DX2                !
 ! A61   A(16,15,20)           120.0709         estimate D2E/DX2                !
 ! A62   A(15,16,17)           119.991          estimate D2E/DX2                !
 ! A63   A(15,16,40)           120.1043         estimate D2E/DX2                !
 ! A64   A(17,16,40)           119.9047         estimate D2E/DX2                !
 ! A65   A(16,17,18)           120.0602         estimate D2E/DX2                !
 ! A66   A(16,17,41)           120.1127         estimate D2E/DX2                !
 ! A67   A(18,17,41)           119.827          estimate D2E/DX2                !
 ! A68   A(17,18,19)           119.9365         estimate D2E/DX2                !
 ! A69   A(17,18,42)           119.9018         estimate D2E/DX2                !
 ! A70   A(19,18,42)           120.1617         estimate D2E/DX2                !
 ! A71   A(18,19,20)           120.0245         estimate D2E/DX2                !
 ! A72   A(18,19,43)           119.9465         estimate D2E/DX2                !
 ! A73   A(20,19,43)           120.029          estimate D2E/DX2                !
 ! A74   A(15,20,19)           119.9153         estimate D2E/DX2                !
 ! A75   A(15,20,44)           119.8966         estimate D2E/DX2                !
 ! A76   A(19,20,44)           120.1881         estimate D2E/DX2                !
 ! A77   A(10,21,14)           119.7264         estimate D2E/DX2                !
 ! A78   A(10,21,45)           120.2462         estimate D2E/DX2                !
 ! A79   A(14,21,45)           120.0274         estimate D2E/DX2                !
 ! A80   A(1,22,2)             109.4155         estimate D2E/DX2                !
 ! A81   A(1,22,46)            109.4105         estimate D2E/DX2                !
 ! A82   A(1,22,47)            109.4791         estimate D2E/DX2                !
 ! A83   A(2,22,46)            109.412          estimate D2E/DX2                !
 ! A84   A(2,22,47)            109.5154         estimate D2E/DX2                !
 ! A85   A(46,22,47)           109.5947         estimate D2E/DX2                !
 ! A86   A(3,23,4)             120.056          estimate D2E/DX2                !
 ! A87   A(6,25,48)            110.1835         estimate D2E/DX2                !
 ! D1    D(26,1,22,2)           60.1006         estimate D2E/DX2                !
 ! D2    D(26,1,22,46)         -59.7559         estimate D2E/DX2                !
 ! D3    D(26,1,22,47)        -179.8747         estimate D2E/DX2                !
 ! D4    D(10,2,3,23)           30.9627         estimate D2E/DX2                !
 ! D5    D(10,2,3,24)         -149.0528         estimate D2E/DX2                !
 ! D6    D(22,2,3,23)          150.936          estimate D2E/DX2                !
 ! D7    D(22,2,3,24)          -29.0795         estimate D2E/DX2                !
 ! D8    D(27,2,3,23)          -89.1129         estimate D2E/DX2                !
 ! D9    D(27,2,3,24)           90.8716         estimate D2E/DX2                !
 ! D10   D(3,2,10,11)         -149.9125         estimate D2E/DX2                !
 ! D11   D(3,2,10,21)           30.0427         estimate D2E/DX2                !
 ! D12   D(22,2,10,11)          89.7457         estimate D2E/DX2                !
 ! D13   D(22,2,10,21)         -90.2991         estimate D2E/DX2                !
 ! D14   D(27,2,10,11)         -29.9197         estimate D2E/DX2                !
 ! D15   D(27,2,10,21)         150.0355         estimate D2E/DX2                !
 ! D16   D(3,2,22,1)            60.0713         estimate D2E/DX2                !
 ! D17   D(3,2,22,46)          179.9268         estimate D2E/DX2                !
 ! D18   D(3,2,22,47)          -59.9312         estimate D2E/DX2                !
 ! D19   D(10,2,22,1)          179.9222         estimate D2E/DX2                !
 ! D20   D(10,2,22,46)         -60.2223         estimate D2E/DX2                !
 ! D21   D(10,2,22,47)          59.9197         estimate D2E/DX2                !
 ! D22   D(27,2,22,1)          -60.1032         estimate D2E/DX2                !
 ! D23   D(27,2,22,46)          59.7523         estimate D2E/DX2                !
 ! D24   D(27,2,22,47)         179.8943         estimate D2E/DX2                !
 ! D25   D(2,3,23,4)            94.1308         estimate D2E/DX2                !
 ! D26   D(24,3,23,4)          -85.8538         estimate D2E/DX2                !
 ! D27   D(9,4,5,6)            -72.699          estimate D2E/DX2                !
 ! D28   D(9,4,5,29)           167.9627         estimate D2E/DX2                !
 ! D29   D(9,4,5,30)            46.9818         estimate D2E/DX2                !
 ! D30   D(23,4,5,6)           168.2917         estimate D2E/DX2                !
 ! D31   D(23,4,5,29)           48.9534         estimate D2E/DX2                !
 ! D32   D(23,4,5,30)          -72.0275         estimate D2E/DX2                !
 ! D33   D(28,4,5,6)            47.3444         estimate D2E/DX2                !
 ! D34   D(28,4,5,29)          -71.9939         estimate D2E/DX2                !
 ! D35   D(28,4,5,30)          167.0252         estimate D2E/DX2                !
 ! D36   D(5,4,9,8)             38.4298         estimate D2E/DX2                !
 ! D37   D(5,4,9,35)           160.1319         estimate D2E/DX2                !
 ! D38   D(5,4,9,36)           -79.8962         estimate D2E/DX2                !
 ! D39   D(23,4,9,8)           160.5631         estimate D2E/DX2                !
 ! D40   D(23,4,9,35)          -77.7348         estimate D2E/DX2                !
 ! D41   D(23,4,9,36)           42.2371         estimate D2E/DX2                !
 ! D42   D(28,4,9,8)           -78.4155         estimate D2E/DX2                !
 ! D43   D(28,4,9,35)           43.2866         estimate D2E/DX2                !
 ! D44   D(28,4,9,36)          163.2585         estimate D2E/DX2                !
 ! D45   D(5,4,23,3)          -148.6103         estimate D2E/DX2                !
 ! D46   D(9,4,23,3)            94.0785         estimate D2E/DX2                !
 ! D47   D(28,4,23,3)          -28.7247         estimate D2E/DX2                !
 ! D48   D(4,5,6,7)             34.6721         estimate D2E/DX2                !
 ! D49   D(4,5,6,25)           -83.0015         estimate D2E/DX2                !
 ! D50   D(4,5,6,31)           156.9316         estimate D2E/DX2                !
 ! D51   D(29,5,6,7)           157.5894         estimate D2E/DX2                !
 ! D52   D(29,5,6,25)           39.9158         estimate D2E/DX2                !
 ! D53   D(29,5,6,31)          -80.1511         estimate D2E/DX2                !
 ! D54   D(30,5,6,7)           -81.3177         estimate D2E/DX2                !
 ! D55   D(30,5,6,25)          161.0087         estimate D2E/DX2                !
 ! D56   D(30,5,6,31)           40.9419         estimate D2E/DX2                !
 ! D57   D(5,6,7,8)             37.904          estimate D2E/DX2                !
 ! D58   D(5,6,7,32)           -78.8047         estimate D2E/DX2                !
 ! D59   D(5,6,7,33)           160.7821         estimate D2E/DX2                !
 ! D60   D(25,6,7,8)           159.2697         estimate D2E/DX2                !
 ! D61   D(25,6,7,32)           42.561          estimate D2E/DX2                !
 ! D62   D(25,6,7,33)          -77.8522         estimate D2E/DX2                !
 ! D63   D(31,6,7,8)           -80.6536         estimate D2E/DX2                !
 ! D64   D(31,6,7,32)          162.6377         estimate D2E/DX2                !
 ! D65   D(31,6,7,33)           42.2245         estimate D2E/DX2                !
 ! D66   D(5,6,25,48)         -179.8227         estimate D2E/DX2                !
 ! D67   D(7,6,25,48)           60.2948         estimate D2E/DX2                !
 ! D68   D(31,6,25,48)         -61.646          estimate D2E/DX2                !
 ! D69   D(6,7,8,9)            -74.6134         estimate D2E/DX2                !
 ! D70   D(6,7,8,34)            45.6546         estimate D2E/DX2                !
 ! D71   D(32,7,8,9)            44.8644         estimate D2E/DX2                !
 ! D72   D(32,7,8,34)          165.1324         estimate D2E/DX2                !
 ! D73   D(33,7,8,9)           165.1097         estimate D2E/DX2                !
 ! D74   D(33,7,8,34)          -74.6223         estimate D2E/DX2                !
 ! D75   D(7,8,9,4)             34.9385         estimate D2E/DX2                !
 ! D76   D(7,8,9,35)           -84.3107         estimate D2E/DX2                !
 ! D77   D(7,8,9,36)           155.9825         estimate D2E/DX2                !
 ! D78   D(34,8,9,4)           -81.9401         estimate D2E/DX2                !
 ! D79   D(34,8,9,35)          158.8106         estimate D2E/DX2                !
 ! D80   D(34,8,9,36)           39.1039         estimate D2E/DX2                !
 ! D81   D(2,10,11,12)        -179.9926         estimate D2E/DX2                !
 ! D82   D(2,10,11,37)          -0.0085         estimate D2E/DX2                !
 ! D83   D(21,10,11,12)          0.0523         estimate D2E/DX2                !
 ! D84   D(21,10,11,37)       -179.9636         estimate D2E/DX2                !
 ! D85   D(2,10,21,14)        -179.7437         estimate D2E/DX2                !
 ! D86   D(2,10,21,45)           0.3044         estimate D2E/DX2                !
 ! D87   D(11,10,21,14)          0.2114         estimate D2E/DX2                !
 ! D88   D(11,10,21,45)       -179.7405         estimate D2E/DX2                !
 ! D89   D(10,11,12,13)         -0.1716         estimate D2E/DX2                !
 ! D90   D(10,11,12,38)        179.9127         estimate D2E/DX2                !
 ! D91   D(37,11,12,13)        179.8442         estimate D2E/DX2                !
 ! D92   D(37,11,12,38)         -0.0715         estimate D2E/DX2                !
 ! D93   D(11,12,13,14)          0.0267         estimate D2E/DX2                !
 ! D94   D(11,12,13,39)        179.9678         estimate D2E/DX2                !
 ! D95   D(38,12,13,14)        179.9424         estimate D2E/DX2                !
 ! D96   D(38,12,13,39)         -0.1164         estimate D2E/DX2                !
 ! D97   D(12,13,14,15)       -179.6677         estimate D2E/DX2                !
 ! D98   D(12,13,14,21)          0.2386         estimate D2E/DX2                !
 ! D99   D(39,13,14,15)          0.3913         estimate D2E/DX2                !
 ! D100  D(39,13,14,21)       -179.7024         estimate D2E/DX2                !
 ! D101  D(13,14,15,16)       -179.6765         estimate D2E/DX2                !
 ! D102  D(13,14,15,20)          0.3614         estimate D2E/DX2                !
 ! D103  D(21,14,15,16)          0.4169         estimate D2E/DX2                !
 ! D104  D(21,14,15,20)       -179.5451         estimate D2E/DX2                !
 ! D105  D(13,14,21,10)         -0.3568         estimate D2E/DX2                !
 ! D106  D(13,14,21,45)        179.5952         estimate D2E/DX2                !
 ! D107  D(15,14,21,10)        179.5495         estimate D2E/DX2                !
 ! D108  D(15,14,21,45)         -0.4984         estimate D2E/DX2                !
 ! D109  D(14,15,16,17)        179.6053         estimate D2E/DX2                !
 ! D110  D(14,15,16,40)         -0.3676         estimate D2E/DX2                !
 ! D111  D(20,15,16,17)         -0.4328         estimate D2E/DX2                !
 ! D112  D(20,15,16,40)        179.5944         estimate D2E/DX2                !
 ! D113  D(14,15,20,19)       -179.6608         estimate D2E/DX2                !
 ! D114  D(14,15,20,44)          0.277          estimate D2E/DX2                !
 ! D115  D(16,15,20,19)          0.3771         estimate D2E/DX2                !
 ! D116  D(16,15,20,44)       -179.6851         estimate D2E/DX2                !
 ! D117  D(15,16,17,18)          0.1715         estimate D2E/DX2                !
 ! D118  D(15,16,17,41)       -179.9158         estimate D2E/DX2                !
 ! D119  D(40,16,17,18)       -179.8556         estimate D2E/DX2                !
 ! D120  D(40,16,17,41)          0.0571         estimate D2E/DX2                !
 ! D121  D(16,17,18,19)          0.1441         estimate D2E/DX2                !
 ! D122  D(16,17,18,42)       -179.8274         estimate D2E/DX2                !
 ! D123  D(41,17,18,19)       -179.7688         estimate D2E/DX2                !
 ! D124  D(41,17,18,42)          0.2597         estimate D2E/DX2                !
 ! D125  D(17,18,19,20)         -0.1995         estimate D2E/DX2                !
 ! D126  D(17,18,19,43)        179.7851         estimate D2E/DX2                !
 ! D127  D(42,18,19,20)        179.7719         estimate D2E/DX2                !
 ! D128  D(42,18,19,43)         -0.2435         estimate D2E/DX2                !
 ! D129  D(18,19,20,15)         -0.061          estimate D2E/DX2                !
 ! D130  D(18,19,20,44)       -179.9986         estimate D2E/DX2                !
 ! D131  D(43,19,20,15)        179.9544         estimate D2E/DX2                !
 ! D132  D(43,19,20,44)          0.0168         estimate D2E/DX2                !
 --------------------------------------------------------------------------------
 Trust Radius=3.00D-01 FncErr=1.00D-07 GrdErr=1.00D-06
 Number of steps in this run= 279 maximum allowed number of steps= 288.
 GradGradGradGradGradGradGradGradGradGradGradGradGradGradGradGradGradGrad

                          Input orientation:                          
 ---------------------------------------------------------------------
 Center     Atomic      Atomic             Coordinates (Angstroms)
 Number     Number       Type             X           Y           Z
 ---------------------------------------------------------------------
      1          8           0       -3.717000   -3.364000    0.872000
      2          6           0       -2.486000   -1.271000    0.908000
      3          6           0       -1.149000   -2.019000    1.081000
      4          6           0        0.737000   -0.836000    2.554000
      5          6           0        1.488000    0.455000    2.549000
      6          6           0        1.703000    0.792000    4.054000
      7          6           0        1.915000   -0.530000    4.870000
      8          7           0        2.695000   -1.411000    4.054000
      9          6           0        1.777000   -1.933000    2.990000
     10          6           0       -2.240000    0.028000    0.117000
     11          6           0       -3.053000    1.150000    0.342000
     12          6           0       -2.828000    2.332000   -0.379000
     13          6           0       -1.791000    2.392000   -1.319000
     14          6           0       -0.978000    1.273000   -1.541000
     15          6           0        0.167000    1.346000   -2.571000
     16          6           0        0.981000    0.226000   -2.803000
     17          6           0        2.016000    0.295000   -3.747000
     18          6           0        2.241000    1.483000   -4.457000
     19          6           0        1.431000    2.605000   -4.220000
     20          6           0        0.393000    2.536000   -3.275000
     21          6           0       -1.202000    0.087000   -0.827000
     22          6           0       -3.489000   -2.156000    0.139000
     23          6           0        0.166000   -1.218000    1.177000
     24          8           0       -1.129000   -3.276000    1.144000
     25          8           0        0.555000    1.439000    4.634000
     26          1           0       -4.077000   -3.151000    1.737000
     27          1           0       -2.892000   -1.035000    1.872000
     28          1           0       -0.069000   -0.737000    3.258000
     29          1           0        0.970000    1.269000    2.078000
     30          1           0        2.414000    0.281000    2.029000
     31          1           0        2.552000    1.448000    4.102000
     32          1           0        0.984000   -1.022000    5.061000
     33          1           0        2.385000   -0.293000    5.804000
     34          1           0        3.450000   -0.868000    3.672000
     35          1           0        1.216000   -2.780000    3.340000
     36          1           0        2.400000   -2.224000    2.165000
     37          1           0       -3.842000    1.106000    1.060000
     38          1           0       -3.448000    3.189000   -0.210000
     39          1           0       -1.622000    3.295000   -1.868000
     40          1           0        0.813000   -0.681000   -2.261000
     41          1           0        2.639000   -0.561000   -3.927000
     42          1           0        3.030000    1.532000   -5.179000
     43          1           0        1.605000    3.514000   -4.760000
     44          1           0       -0.227000    3.391000   -3.092000
     45          1           0       -0.583000   -0.770000   -1.003000
     46          1           0       -4.414000   -1.629000    0.025000
     47          1           0       -3.091000   -2.393000   -0.823000
     48          1           0        0.718000    1.636000    5.558000
 ---------------------------------------------------------------------
                    Distance matrix (angstroms):
                    1          2          3          4          5
     1  O    0.000000
     2  C    2.428437   0.000000
     3  C    2.906429   1.541753   0.000000
     4  C    5.390550   3.645034   2.669497   0.000000
     5  C    6.670016   4.632994   3.902495   1.493555   0.000000
     6  C    7.534843   5.630365   4.987420   2.415272   1.557183
     7  C    7.465587   5.967858   5.095266   2.616329   2.557263
     8  N    7.419776   6.062976   4.897421   2.532664   2.683995
     9  C    6.059515   4.790213   3.494732   1.573247   2.445515
    10  C    3.775873   1.540649   2.511929   3.943094   4.471570
    11  C    4.593255   2.550115   3.770132   4.816767   5.096524
    12  C    5.899130   3.841216   4.886905   5.598923   5.542939
    13  C    6.453022   4.342824   5.062518   5.640115   5.428189
    14  C    5.901395   3.839740   4.212053   4.915092   4.845449
    15  C    7.008838   5.098092   5.137332   5.599254   5.362212
    16  C    6.961676   5.294584   4.966123   5.466702   5.380836
    17  C    8.221358   6.662536   6.219438   6.528216   6.320127
    18  C    9.348231   7.662393   7.377367   7.536173   7.120943
    19  C    9.383993   7.527460   7.492555   7.629495   7.102472
    20  C    8.300585   6.346604   6.488492   6.742845   6.280809
    21  C    4.595784   2.550107   2.842272   4.005348   4.332309
    22  C    1.431271   1.542918   2.526209   5.043184   6.115223
    23  C    4.447025   2.666135   1.542738   1.538861   2.535547
    24  O    2.603742   2.432523   1.258737   3.379890   4.768970
    25  O    7.447915   5.520404   5.242632   3.087904   2.487161
    26  H    0.960830   2.598638   3.207015   5.403824   6.680704
    27  H    2.665495   1.072300   2.152205   3.697887   4.675770
    28  H    5.089404   3.413143   2.747590   1.074734   2.085136
    29  H    6.699783   4.445721   4.036721   2.170689   1.073667
    30  H    7.225914   5.260736   4.345535   2.082221   1.076175
    31  H    8.537482   6.555611   5.902875   3.302603   2.128369
    32  H    6.718042   5.417593   4.624294   2.525996   2.957311
    33  H    8.425560   6.975238   6.146134   3.684190   3.458199
    34  H    8.089246   6.560351   5.402674   2.934505   2.619332
    35  H    5.546762   4.679371   3.357890   2.150901   3.341390
    36  H    6.355245   5.134321   3.716515   2.200780   2.855913
    37  H    4.475698   2.740797   4.125326   5.193327   5.572237
    38  H    6.647172   4.697549   5.837409   6.430750   6.280998
    39  H    7.499260   5.413042   6.095812   6.494931   6.103080
    40  H    6.126588   4.612381   4.099836   4.818094   4.988208
    41  H    8.443100   7.081451   6.446299   6.759925   6.655496
    42  H   10.300846   8.679553   8.322334   8.406222   7.953595
    43  H   10.360984   8.471052   8.503875   8.553977   7.924181
    44  H    8.574580   6.545023   6.894354   7.118577   6.586517
    45  H    4.479555   2.743051   2.494677   3.794602   4.290265
    46  H    2.052667   2.150590   3.453616   5.792883   6.748869
    47  H    2.051278   2.149714   2.745261   5.336849   6.359932
    48  H    8.162587   6.351281   6.073569   3.890393   3.322912
                    6          7          8          9         10
     6  C    0.000000
     7  C    1.567955   0.000000
     8  N    2.416045   1.431928   0.000000
     9  C    2.926294   2.349862   1.499101   0.000000
    10  C    5.624137   6.337697   6.474945   5.313750   0.000000
    11  C    6.043728   6.928651   7.305968   6.312344   1.403737
    12  C    6.523270   7.631454   8.010310   7.123652   2.429028
    13  C    6.605843   7.783074   7.965936   7.071332   2.802176
    14  C    6.222793   7.260935   7.211020   6.196646   2.427269
    15  C    6.823257   7.870410   7.608052   6.653470   3.841369
    16  C    6.918099   7.766519   7.255068   6.233277   4.352062
    17  C    7.823080   8.656992   8.014180   7.099878   5.754591
    18  C    8.555936   9.547323   9.001026   8.206227   6.566419
    19  C    8.474670   9.627595   9.283589   8.526269   6.239130
    20  C    7.646691   8.835036   8.636681   7.819056   4.972768
    21  C    5.723654   6.523204   6.422988   5.246364   1.404301
    22  C    7.139663   7.364065   7.356909   5.992386   2.516017
    23  C    3.831396   4.143742   3.835390   2.528540   2.909459
    24  O    5.747778   5.539813   5.154542   3.695430   3.633933
    25  O    1.439761   2.404632   3.610886   3.945428   5.496020
    26  H    7.370491   7.251855   7.365872   6.109243   4.013105
    27  H    5.404912   5.687730   6.009748   4.884249   2.152928
    28  H    2.472133   2.564693   2.954249   2.215842   3.894143
    29  H    2.160878   3.453214   3.750013   3.425755   3.961023
    30  H    2.206188   2.996332   2.653761   2.496214   5.037804
    31  H    1.073984   2.215418   2.862976   3.642572   6.392174
    32  H    2.195816   1.070190   2.023089   2.397459   5.994982
    33  H    2.169066   1.072112   2.099649   3.313285   7.337277
    34  H    2.439986   1.976278   1.005385   2.097207   6.768821
    35  H    3.675071   2.809271   2.138083   1.074537   5.496956
    36  H    3.626346   3.228295   2.077574   1.073981   5.549361
    37  H    6.309489   7.094762   7.617854   6.673349   2.148892
    38  H    7.103528   8.270377   8.779416   7.985957   3.399723
    39  H    7.238143   8.517138   8.709363   7.904767   3.872394
    40  H    6.545308   7.217227   6.629785   5.483594   3.934256
    41  H    8.148808   8.826797   8.026331   7.104246   6.364393
    42  H    9.357180  10.318792   9.696482   8.961517   7.621190
    43  H    9.225263  10.449255  10.155310   9.474275   7.121892
    44  H    7.845063   9.129942   9.091898   8.327768   5.065532
    45  H    5.765318   6.386684   6.060480   4.781863   2.153335
    46  H    7.714387   8.045997   8.174243   6.871108   2.735030
    47  H    7.543990   7.806475   7.630678   6.200645   2.732955
    48  H    1.986096   2.568601   3.931253   4.522595   6.398430
                   11         12         13         14         15
    11  C    0.000000
    12  C    1.402708   0.000000
    13  C    2.427783   1.400917   0.000000
    14  C    2.804718   2.427803   1.400862   0.000000
    15  C    4.346537   3.840193   2.548604   1.541835   0.000000
    16  C    5.197880   4.981917   3.818088   2.554708   1.403859
    17  C    6.568539   6.241565   4.978538   3.845381   2.430304
    18  C    7.153162   6.560918   5.189446   4.348461   2.806642
    19  C    6.560116   5.741680   4.340790   3.841165   2.429399
    20  C    5.184458   4.336274   2.935392   2.545892   1.400997
    21  C    2.433666   2.807954   2.429405   1.402344   2.549662
    22  C    3.340799   4.565894   5.068853   4.570072   5.742338
    23  C    4.082476   4.897721   4.805410   3.860226   4.541101
    24  O    4.892285   6.054403   6.215371   5.284451   6.069903
    25  O    5.614486   6.113289   6.469168   6.364611   7.216039
    26  H    4.636076   6.008390   6.729768   6.318296   7.536140
    27  H    2.672274   4.050653   4.810303   4.542998   5.896346
    28  H    4.579092   5.500783   5.805588   5.281740   6.194500
    29  H    4.383194   4.646679   4.519276   4.109973   4.718468
    30  H    5.786987   6.122388   5.774725   5.023408   5.229076
    31  H    6.755918   7.057281   7.009995   6.658451   7.087140
    32  H    6.579051   7.441388   7.749866   7.259674   8.032580
    33  H    7.841399   8.502675   8.682473   8.228679   8.817396
    34  H    7.579593   8.127969   7.937617   7.167038   7.392898
    35  H    6.531253   7.504495   7.582738   6.713018   7.284518
    36  H    6.666514   7.386546   7.142142   6.113455   6.337262
    37  H    1.067699   2.145226   3.394118   3.872413   5.414226
    38  H    2.149011   1.071172   2.147263   3.397575   4.694592
    39  H    3.396010   2.144511   1.070220   2.147126   2.737395
    40  H    5.007407   5.086942   4.136606   2.746670   2.149917
    41  H    7.317838   7.130627   5.928471   4.705235   3.403846
    42  H    8.223762   7.615521   6.235482   5.419058   3.877245
    43  H    7.301771   6.343640   4.963082   4.696374   3.399969
    44  H    4.980031   3.904747   2.566637   2.730481   2.146789
    45  H    3.405338   3.879666   3.399612   2.149260   2.738354
    46  H    3.110571   4.285806   4.985469   4.762358   6.047760
    47  H    3.729815   4.753097   4.983196   4.291835   5.258345
    48  H    6.454711   6.950288   7.359331   7.307803   8.152812
                   16         17         18         19         20
    16  C    0.000000
    17  C    1.402541   0.000000
    18  C    2.429684   1.402166   0.000000
    19  C    2.805357   2.429414   1.403978   0.000000
    20  C    2.429944   2.806955   2.433318   1.405429   0.000000
    21  C    2.947776   4.350309   5.194224   4.978500   3.812392
    22  C    5.857490   7.170315   8.197465   8.116305   6.981417
    23  C    4.311585   5.473339   6.583539   6.733733   5.827894
    24  O    5.682861   6.823851   8.085554   8.361355   7.458109
    25  O    7.547305   8.583963   9.246124   8.973308   7.986359
    26  H    7.589407   8.892346   9.987828   9.947635   8.800171
    27  H    6.200474   7.578293   8.529024   8.309657   7.073533
    28  H    6.226202   7.381211   8.353785   8.327031   7.321616
    29  H    4.991205   5.997784   6.660890   6.454628   5.531078
    30  H    5.040311   5.789713   6.598707   6.739233   6.107527
    31  H    7.186122   7.951321   8.564720   8.476495   7.763063
    32  H    7.962412   8.965510   9.922066   9.974563   9.082816
    33  H    8.736191   9.576195  10.414559  10.478029   9.715943
    34  H    7.015584   7.645292   8.548071   8.855606   8.318249
    35  H    6.843078   7.766672   8.945222   9.284290   8.526160
    36  H    5.718136   6.437745   7.590653   8.063897   7.501950
    37  H    6.241674   7.621098   8.220846   7.611171   6.226745
    38  H    5.926134   7.123265   7.301518   6.342381   4.957208
    39  H    4.131416   5.075991   4.990895   3.915203   2.572150
    40  H    1.069877   2.146621   3.397719   3.875229   3.399071
    41  H    2.152141   1.073902   2.148776   3.401275   3.880854
    42  H    3.398443   2.146856   1.070610   2.151235   3.403968
    43  H    3.876876   3.399566   2.149713   1.071521   2.151895
    44  H    3.400001   3.878826   3.405101   2.153867   1.071874
    45  H    2.584204   3.926648   4.998110   5.078967   4.128462
    46  H    6.367467   7.699004   8.605922   8.373220   7.165506
    47  H    5.230750   6.469665   7.527254   7.547721   6.515029
    48  H    8.483136   9.490317  10.131296   9.851732   8.884679
                   21         22         23         24         25
    21  C    0.000000
    22  C    3.345829   0.000000
    23  C    2.755080   3.913606   0.000000
    24  O    3.898710   2.798933   2.431764   0.000000
    25  O    5.893851   7.034414   4.377422   6.103047   0.000000
    26  H    5.032332   1.972149   4.696077   3.009647   7.135554
    27  H    3.376327   2.148567   3.141318   2.942828   5.062720
    28  H    4.318552   4.841293   2.148755   3.469743   2.649099
    29  H    3.814936   5.947523   2.764667   5.092660   2.595045
    30  H    4.611922   6.660066   2.833092   5.097874   3.403362
    31  H    6.343491   8.073900   4.621274   6.679499   2.066667
    32  H    6.377854   6.746834   3.974040   4.988805   2.534342
    33  H    7.548585   8.370596   5.214280   6.554547   2.778061
    34  H    6.541722   7.892449   4.139104   5.758167   3.824751
    35  H    5.606273   5.724753   2.867213   3.250763   4.462210
    36  H    5.221799   6.228131   2.641768   3.821385   4.787228
    37  H    3.401284   3.407858   4.634515   5.154546   5.676088
    38  H    3.879125   5.356539   5.865698   7.000522   6.523101
    39  H    3.398727   6.101405   5.730283   7.245221   7.103525
    40  H    2.589673   5.142259   3.539325   4.701001   7.218171
    41  H    4.978271   7.525209   5.709483   6.876343   9.035141
    42  H    6.240012   9.185849   7.494247   8.966297  10.120733
    43  H    5.923856   9.060791   7.727258   9.404046   9.677570
    44  H    4.122774   7.200640   6.294576   7.950232   8.007053
    45  H    1.071721   3.416138   2.348213   3.344811   6.160397
    46  H    3.739987   1.070677   4.740509   3.841353   7.439521
    47  H    3.117489   1.067716   3.998584   2.915171   7.599762
    48  H    6.845000   7.838602   5.257678   6.857299   0.958725
                   26         27         28         29         30
    26  H    0.000000
    27  H    2.428972   0.000000
    28  H    4.919848   3.158976   0.000000
    29  H    6.717506   4.501766   2.548717   0.000000
    30  H    7.348263   5.469016   2.951619   1.750337   0.000000
    31  H    8.407596   6.385556   3.515139   2.575139   2.382910
    32  H    6.418359   5.019289   2.107331   3.761272   3.596628
    33  H    8.152674   6.622531   3.563898   4.280788   3.818500
    34  H    8.100126   6.594608   3.545690   3.641154   2.256756
    35  H    5.542842   4.698480   2.414912   4.248242   3.538876
    36  H    6.556984   5.431835   3.082496   3.775383   2.508728
    37  H    4.316897   2.479057   4.739555   4.921203   6.384130
    38  H    6.661985   4.741944   6.233630   5.332923   6.916114
    39  H    7.782928   5.860836   6.704082   5.137515   6.368681
    40  H    6.782109   5.561837   5.589313   4.759629   4.678968
    41  H    9.159348   8.027767   7.680395   6.495728   6.019429
    42  H   10.966813   9.559089   9.270120   7.548299   7.341643
    43  H   10.904969   9.214111   9.228304   7.225060   7.562889
    44  H    8.996639   7.164705   7.575477   5.715295   6.547642
    45  H    5.038333   3.696935   4.292017   4.007729   4.390858
    46  H    2.315383   2.465913   5.488805   6.449858   7.367883
    47  H    2.846113   3.024366   5.341290   6.190135   6.751978
    48  H    7.778653   5.809728   3.397131   3.508360   4.143221
                   31         32         33         34         35
    31  H    0.000000
    32  H    3.078832   0.000000
    33  H    2.440445   1.745363   0.000000
    34  H    2.520944   2.834465   2.451586   0.000000
    35  H    4.499058   2.471079   3.690938   2.959176   0.000000
    36  H    4.154354   3.440447   4.119625   2.283043   1.758299
    37  H    7.089003   6.620171   7.952249   7.993277   6.773681
    38  H    7.591075   8.072087   9.072839   8.894469   8.365665
    39  H    7.514957   8.569642   9.369599   8.587628   8.490179
    40  H    6.931416   7.331931   8.225932   6.495323   5.994949
    41  H    8.276986   9.150721   9.738003   7.648318   7.730341
    42  H    9.293681  10.750192  11.152262   9.180229   9.718915
    43  H    9.148782  10.835727  11.256098   9.680112  10.265269
    44  H    7.953095   9.349465   9.976634   8.798358   9.029624
    45  H    6.388175   6.268260   7.441223   6.174975   5.112548
    46  H    8.637998   7.407304   9.022646   8.701852   6.634073
    47  H    8.417384   7.287436   8.849503   8.081790   6.002548
    48  H    2.349220   2.717118   2.561337   4.158225   4.966748
                   36         37         38         39         40
    36  H    0.000000
    37  H    7.160481   0.000000
    38  H    8.315065   2.471240   0.000000
    39  H    7.931011   4.277067   2.468699   0.000000
    40  H    4.948625   5.990946   6.110616   4.678915   0.000000
    41  H    6.319427   8.345802   8.057925   6.104452   2.474719
    42  H    8.272773   9.291447   8.330732   5.975951   4.281026
    43  H    9.028416   8.327105   6.807418   4.338796   4.946745
    44  H    8.128063   5.960583   4.326843   1.858337   4.284080
    45  H    4.587878   4.289106   4.950834   4.283920   1.881303
    46  H    7.166884   2.979704   4.919503   5.968625   5.783254
    47  H    6.253622   4.043846   5.626895   5.966853   4.498889
    48  H    5.407511   6.427014   7.282664   7.960738   8.155628
                   41         42         43         44         45
    41  H    0.000000
    42  H    2.470027   0.000000
    43  H    4.285869   2.476794   0.000000
    44  H    4.952725   4.291794   2.480640   0.000000
    45  H    4.356001   5.982637   6.103691   4.669537   0.000000
    46  H    8.154982   9.616999   9.250678   7.242034   4.058476
    47  H    6.769338   8.476261   8.511465   6.841455   2.992757
    48  H    9.923824  10.983594  10.524960   8.876686   7.108316
                   46         47         48
    46  H    0.000000
    47  H    1.747321   0.000000
    48  H    8.222636   8.453312   0.000000
 Symmetry turned off by external request.
 Stoichiometry    C21H23NO3
 Framework group  C1[X(C21H23NO3)]
 Deg. of freedom   138
 Full point group                 C1      NOp   1
 Rotational constants (GHZ):      0.2348971      0.1432200      0.1165253
 Standard basis: STO-3G (5D, 7F)
 Integral buffers will be    131072 words long.
 Raffenetti 2 integral format.
 Two-electron integral symmetry is turned off.
   148 basis functions,   444 primitive gaussians,   148 cartesian basis functions
    90 alpha electrons       90 beta electrons
       nuclear repulsion energy      2111.8840359873 Hartrees.
 NAtoms=   48 NActive=   48 NUniq=   48 SFac= 7.50D-01 NAtFMM=   80 NAOKFM=F Big=F
 One-electron integrals computed using PRISM.
 NBasis=   148 RedAO= T  NBF=   148
 NBsUse=   148 1.00D-06 NBFU=   148
 Harris functional with IExCor=  402 diagonalized for initial guess.
 ExpMin= 1.69D-01 ExpMax= 1.31D+02 ExpMxC= 1.31D+02 IAcc=1 IRadAn=         1 AccDes= 0.00D+00
 HarFok:  IExCor=  402 AccDes= 0.00D+00 IRadAn=         1 IDoV= 1
 ScaDFX=  1.000000  1.000000  1.000000  1.000000
 FoFCou: FMM=F IPFlag=           0 FMFlag=      100000 FMFlg1=           0
         NFxFlg=           0 DoJE=T BraDBF=F KetDBF=T FulRan=T
         Omega=  0.000000  0.000000  1.000000  0.000000  0.000000 ICntrl=     500 IOpCl=  0
         NMat0=    1 NMatS0=    1 NMatT0=    0 NMatD0=    1 NMtDS0=    0 NMtDT0=    0
         I1Cent=           4 NGrid=           0.
 Symmetry not used in FoFCou.
 Requested convergence on RMS density matrix=1.00D-08 within 128 cycles.
 Requested convergence on MAX density matrix=1.00D-06.
 Requested convergence on             energy=1.00D-06.
 No special actions if energy rises.
 Keep R1 ints in memory in canonical form, NReq=62942079.
 Integral accuracy reduced to 1.0D-05 until final iterations.
 Initial convergence to 1.0D-05 achieved.  Increase integral accuracy.
 SCF Done:  E(RB3LYP) =  -1080.47622182     A.U. after   20 cycles
             Convg  =    0.3356D-08             -V/T =  2.0155

 **********************************************************************

            Population analysis using the SCF density.

 **********************************************************************

 Alpha  occ. eigenvalues --  -18.86212 -18.86069 -18.85422 -14.13575 -10.06676
 Alpha  occ. eigenvalues --  -10.06496 -10.05479 -10.05217 -10.05135 -10.03585
 Alpha  occ. eigenvalues --  -10.02968 -10.02692 -10.01679 -10.01576 -10.01356
 Alpha  occ. eigenvalues --  -10.00569 -10.00465 -10.00416 -10.00297 -10.00251
 Alpha  occ. eigenvalues --  -10.00200 -10.00174 -10.00172  -9.99843  -9.95882
 Alpha  occ. eigenvalues --   -0.96177  -0.96064  -0.94202  -0.89787  -0.82056
 Alpha  occ. eigenvalues --   -0.80124  -0.77741  -0.75186  -0.72237  -0.71765
 Alpha  occ. eigenvalues --   -0.70212  -0.68240  -0.67072  -0.65298  -0.62678
 Alpha  occ. eigenvalues --   -0.60412  -0.58575  -0.57430  -0.56923  -0.54564
 Alpha  occ. eigenvalues --   -0.52807  -0.52680  -0.50244  -0.49278  -0.47128
 Alpha  occ. eigenvalues --   -0.45821  -0.45388  -0.44808  -0.43704  -0.42175
 Alpha  occ. eigenvalues --   -0.41484  -0.40548  -0.39862  -0.39723  -0.38993
 Alpha  occ. eigenvalues --   -0.37952  -0.37642  -0.37436  -0.37395  -0.36858
 Alpha  occ. eigenvalues --   -0.36144  -0.35813  -0.34398  -0.33149  -0.32981
 Alpha  occ. eigenvalues --   -0.32108  -0.31818  -0.31639  -0.30525  -0.30185
 Alpha  occ. eigenvalues --   -0.29171  -0.28407  -0.27937  -0.26025  -0.22397
 Alpha  occ. eigenvalues --   -0.22329  -0.20827  -0.19385  -0.18964  -0.16627
 Alpha  occ. eigenvalues --   -0.16373  -0.14633  -0.12919  -0.12433  -0.09299
 Alpha virt. eigenvalues --    0.00466   0.05906   0.08677   0.09334   0.10177
 Alpha virt. eigenvalues --    0.12846   0.23554   0.26691   0.28399   0.29027
 Alpha virt. eigenvalues --    0.31332   0.33399   0.33650   0.34168   0.35503
 Alpha virt. eigenvalues --    0.35713   0.36975   0.37290   0.38636   0.38809
 Alpha virt. eigenvalues --    0.40858   0.41099   0.41771   0.42224   0.43123
 Alpha virt. eigenvalues --    0.43492   0.44209   0.44388   0.44492   0.46218
 Alpha virt. eigenvalues --    0.46504   0.47257   0.47523   0.48212   0.49030
 Alpha virt. eigenvalues --    0.49328   0.49763   0.50393   0.50509   0.51468
 Alpha virt. eigenvalues --    0.51670   0.52732   0.53788   0.55339   0.55655
 Alpha virt. eigenvalues --    0.57055   0.58287   0.58686   0.59087   0.61560
 Alpha virt. eigenvalues --    0.63160   0.63599   0.64909   0.65839   0.73817
 Alpha virt. eigenvalues --    0.79315   0.79356   0.83533
          Condensed to atoms (all electrons):
              1          2          3          4          5          6
     1  O    7.817795  -0.019037  -0.000902   0.000000   0.000000   0.000000
     2  C   -0.019037   4.859677   0.334394   0.000388  -0.000017   0.000000
     3  C   -0.000902   0.334394   4.915902  -0.018491   0.000724  -0.000007
     4  C    0.000000   0.000388  -0.018491   4.853475   0.361482  -0.027360
     5  C    0.000000  -0.000017   0.000724   0.361482   4.813879   0.354256
     6  C    0.000000   0.000000  -0.000007  -0.027360   0.354256   4.827971
     7  C    0.000000   0.000000   0.000000  -0.013438  -0.022671   0.342591
     8  N    0.000000   0.000000  -0.000001  -0.018971  -0.007288  -0.026158
     9  C    0.000000   0.000000   0.000228   0.329147  -0.024176  -0.006164
    10  C    0.000283   0.366180  -0.022361   0.000060  -0.000012   0.000000
    11  C    0.000000  -0.026847   0.000646   0.000001   0.000000   0.000000
    12  C    0.000000   0.000842  -0.000007   0.000000   0.000000   0.000000
    13  C    0.000000   0.000019   0.000000   0.000000   0.000000   0.000000
    14  C    0.000000   0.000842   0.000047   0.000000  -0.000001   0.000000
    15  C    0.000000  -0.000005   0.000000   0.000000   0.000000   0.000000
    16  C    0.000000   0.000000   0.000000   0.000000   0.000000   0.000000
    17  C    0.000000   0.000000   0.000000   0.000000   0.000000   0.000000
    18  C    0.000000   0.000000   0.000000   0.000000   0.000000   0.000000
    19  C    0.000000   0.000000   0.000000   0.000000   0.000000   0.000000
    20  C    0.000000   0.000000   0.000000   0.000000   0.000000   0.000000
    21  C    0.000000  -0.027401  -0.006821   0.000028  -0.000017   0.000000
    22  C    0.270858   0.340323  -0.022365  -0.000001   0.000000   0.000000
    23  C   -0.000002  -0.030218   0.347586   0.344201  -0.021818   0.000884
    24  O   -0.000670  -0.026682   0.402561  -0.000116   0.000000   0.000000
    25  O    0.000000   0.000000   0.000000  -0.000625  -0.015485   0.266395
    26  H    0.249253  -0.003097  -0.000036   0.000000   0.000000   0.000000
    27  H   -0.001383   0.382234  -0.021888  -0.000083   0.000000   0.000000
    28  H    0.000000   0.000273  -0.005366   0.383014  -0.032301  -0.006151
    29  H    0.000000  -0.000002   0.000037  -0.018905   0.384897  -0.020375
    30  H    0.000000   0.000000  -0.000009  -0.027122   0.386350  -0.017211
    31  H    0.000000   0.000000   0.000000   0.001594  -0.028357   0.373601
    32  H    0.000000   0.000000   0.000001  -0.002977  -0.000937  -0.020584
    33  H    0.000000   0.000000   0.000000   0.000110   0.001118  -0.024892
    34  H    0.000000   0.000000   0.000000  -0.000146  -0.000385  -0.006405
    35  H    0.000000   0.000000   0.000052  -0.026691   0.001417  -0.000077
    36  H    0.000000   0.000000   0.000015  -0.020680  -0.001433   0.000020
    37  H   -0.000002  -0.003673   0.000018   0.000000   0.000000   0.000000
    38  H    0.000000  -0.000016   0.000000   0.000000   0.000000   0.000000
    39  H    0.000000   0.000001   0.000000   0.000000   0.000000   0.000000
    40  H    0.000000   0.000004  -0.000005   0.000000   0.000000   0.000000
    41  H    0.000000   0.000000   0.000000   0.000000   0.000000   0.000000
    42  H    0.000000   0.000000   0.000000   0.000000   0.000000   0.000000
    43  H    0.000000   0.000000   0.000000   0.000000   0.000000   0.000000
    44  H    0.000000   0.000000   0.000000   0.000000   0.000000   0.000000
    45  H   -0.000001  -0.003495  -0.000891   0.000040  -0.000005   0.000000
    46  H   -0.018150  -0.026869   0.001315   0.000000   0.000000   0.000000
    47  H   -0.018546  -0.023709  -0.002791   0.000000   0.000000   0.000000
    48  H    0.000000   0.000000   0.000000   0.000023   0.002375  -0.035622
              7          8          9         10         11         12
     1  O    0.000000   0.000000   0.000000   0.000283   0.000000   0.000000
     2  C    0.000000   0.000000   0.000000   0.366180  -0.026847   0.000842
     3  C    0.000000  -0.000001   0.000228  -0.022361   0.000646  -0.000007
     4  C   -0.013438  -0.018971   0.329147   0.000060   0.000001   0.000000
     5  C   -0.022671  -0.007288  -0.024176  -0.000012   0.000000   0.000000
     6  C    0.342591  -0.026158  -0.006164   0.000000   0.000000   0.000000
     7  C    4.804563   0.332157  -0.039912   0.000000   0.000000   0.000000
     8  N    0.332157   6.457569   0.330481   0.000000   0.000000   0.000000
     9  C   -0.039912   0.330481   4.780332   0.000001   0.000000   0.000000
    10  C    0.000000   0.000000   0.000001   4.820958   0.500892  -0.028688
    11  C    0.000000   0.000000   0.000000   0.500892   4.819246   0.502346
    12  C    0.000000   0.000000   0.000000  -0.028688   0.502346   4.799261
    13  C    0.000000   0.000000   0.000000  -0.011721  -0.029664   0.504905
    14  C    0.000000   0.000000   0.000000  -0.027996  -0.011629  -0.028589
    15  C    0.000000   0.000000   0.000000   0.000801   0.000017   0.000807
    16  C    0.000000   0.000000   0.000000   0.000036  -0.000001  -0.000006
    17  C    0.000000   0.000000   0.000000   0.000000   0.000000   0.000000
    18  C    0.000000   0.000000   0.000000   0.000000   0.000000   0.000000
    19  C    0.000000   0.000000   0.000000   0.000000   0.000000   0.000000
    20  C    0.000000   0.000000   0.000000  -0.000006  -0.000001   0.000040
    21  C    0.000000   0.000000   0.000001   0.501738  -0.030310  -0.011233
    22  C    0.000000   0.000000   0.000000  -0.020593  -0.000742  -0.000005
    23  C    0.000078   0.000290  -0.011495  -0.000732  -0.000023  -0.000002
    24  O    0.000000   0.000000  -0.000114   0.000291  -0.000001   0.000000
    25  O   -0.022073   0.000219   0.000032   0.000000   0.000000   0.000000
    26  H    0.000000   0.000000   0.000000  -0.000007   0.000001   0.000000
    27  H    0.000000   0.000000   0.000000  -0.021568  -0.003925   0.000028
    28  H   -0.002462  -0.000341  -0.018321  -0.000036  -0.000002   0.000000
    29  H    0.001185   0.000068   0.001498   0.000007   0.000000   0.000000
    30  H   -0.000043  -0.000919  -0.006148   0.000000   0.000000   0.000000
    31  H   -0.024117  -0.000335   0.000144   0.000000   0.000000   0.000000
    32  H    0.389078  -0.024172  -0.007540   0.000000   0.000000   0.000000
    33  H    0.383708  -0.021464   0.002371   0.000000   0.000000   0.000000
    34  H   -0.041106   0.338920  -0.030087   0.000000   0.000000   0.000000
    35  H   -0.000845  -0.021975   0.385890   0.000000   0.000000   0.000000
    36  H    0.002206  -0.020401   0.384061   0.000000   0.000000   0.000000
    37  H    0.000000   0.000000   0.000000  -0.026304   0.395124  -0.025889
    38  H    0.000000   0.000000   0.000000   0.001457  -0.025711   0.394529
    39  H    0.000000   0.000000   0.000000   0.000047   0.001473  -0.025774
    40  H    0.000000   0.000000   0.000000  -0.000005   0.000000  -0.000001
    41  H    0.000000   0.000000   0.000000   0.000000   0.000000   0.000000
    42  H    0.000000   0.000000   0.000000   0.000000   0.000000   0.000000
    43  H    0.000000   0.000000   0.000000   0.000000   0.000000   0.000000
    44  H    0.000000   0.000000   0.000000  -0.000001   0.000000  -0.000007
    45  H    0.000000   0.000000   0.000001  -0.025375   0.001405   0.000042
    46  H    0.000000   0.000000   0.000000  -0.001894   0.000292  -0.000009
    47  H    0.000000   0.000000   0.000000  -0.001678   0.000016   0.000000
    48  H   -0.002413   0.000010  -0.000004   0.000000   0.000000   0.000000
             13         14         15         16         17         18
     1  O    0.000000   0.000000   0.000000   0.000000   0.000000   0.000000
     2  C    0.000019   0.000842  -0.000005   0.000000   0.000000   0.000000
     3  C    0.000000   0.000047   0.000000   0.000000   0.000000   0.000000
     4  C    0.000000   0.000000   0.000000   0.000000   0.000000   0.000000
     5  C    0.000000  -0.000001   0.000000   0.000000   0.000000   0.000000
     6  C    0.000000   0.000000   0.000000   0.000000   0.000000   0.000000
     7  C    0.000000   0.000000   0.000000   0.000000   0.000000   0.000000
     8  N    0.000000   0.000000   0.000000   0.000000   0.000000   0.000000
     9  C    0.000000   0.000000   0.000000   0.000000   0.000000   0.000000
    10  C   -0.011721  -0.027996   0.000801   0.000036   0.000000   0.000000
    11  C   -0.029664  -0.011629   0.000017  -0.000001   0.000000   0.000000
    12  C    0.504905  -0.028589   0.000807  -0.000006   0.000000   0.000000
    13  C    4.814752   0.501227  -0.025451   0.000589  -0.000006  -0.000001
    14  C    0.501227   4.781617   0.393584  -0.025078   0.000794   0.000017
    15  C   -0.025451   0.393584   4.780142   0.499809  -0.028237  -0.011807
    16  C    0.000589  -0.025078   0.499809   4.810085   0.504895  -0.029284
    17  C   -0.000006   0.000794  -0.028237   0.504895   4.798268   0.502443
    18  C   -0.000001   0.000017  -0.011807  -0.029284   0.502443   4.803608
    19  C    0.000039   0.000806  -0.028379  -0.011635  -0.029286   0.502612
    20  C   -0.006618  -0.025631   0.501264  -0.030174  -0.011544  -0.028995
    21  C   -0.030402   0.498295  -0.025388  -0.006170   0.000036  -0.000001
    22  C    0.000001  -0.000005   0.000000   0.000000   0.000000   0.000000
    23  C   -0.000005   0.000022   0.000003  -0.000008   0.000000   0.000000
    24  O    0.000000   0.000000   0.000000   0.000000   0.000000   0.000000
    25  O    0.000000   0.000000   0.000000   0.000000   0.000000   0.000000
    26  H    0.000000   0.000000   0.000000   0.000000   0.000000   0.000000
    27  H    0.000001  -0.000021   0.000000   0.000000   0.000000   0.000000
    28  H    0.000000   0.000000   0.000000   0.000000   0.000000   0.000000
    29  H   -0.000001   0.000005   0.000000   0.000000   0.000000   0.000000
    30  H    0.000000   0.000000   0.000000   0.000000   0.000000   0.000000
    31  H    0.000000   0.000000   0.000000   0.000000   0.000000   0.000000
    32  H    0.000000   0.000000   0.000000   0.000000   0.000000   0.000000
    33  H    0.000000   0.000000   0.000000   0.000000   0.000000   0.000000
    34  H    0.000000   0.000000   0.000000   0.000000   0.000000   0.000000
    35  H    0.000000   0.000000   0.000000   0.000000   0.000000   0.000000
    36  H    0.000000   0.000000   0.000000   0.000000   0.000000   0.000000
    37  H    0.001478   0.000049   0.000001   0.000000   0.000000   0.000000
    38  H   -0.025815   0.001467  -0.000016   0.000000   0.000000   0.000000
    39  H    0.395200  -0.025762  -0.003777   0.000024  -0.000001   0.000000
    40  H    0.000023  -0.003663  -0.025499   0.395259  -0.025483   0.001457
    41  H    0.000000  -0.000016   0.001443  -0.025591   0.394249  -0.025923
    42  H    0.000000   0.000001   0.000046   0.001474  -0.025919   0.394912
    43  H    0.000001  -0.000016   0.001447   0.000037   0.001469  -0.025839
    44  H   -0.002784  -0.003850  -0.025892   0.001441   0.000040   0.001430
    45  H    0.001409  -0.024886  -0.003772  -0.002429  -0.000008   0.000000
    46  H    0.000000   0.000000   0.000000   0.000000   0.000000   0.000000
    47  H    0.000000  -0.000008   0.000000   0.000000   0.000000   0.000000
    48  H    0.000000   0.000000   0.000000   0.000000   0.000000   0.000000
             19         20         21         22         23         24
     1  O    0.000000   0.000000   0.000000   0.270858  -0.000002  -0.000670
     2  C    0.000000   0.000000  -0.027401   0.340323  -0.030218  -0.026682
     3  C    0.000000   0.000000  -0.006821  -0.022365   0.347586   0.402561
     4  C    0.000000   0.000000   0.000028  -0.000001   0.344201  -0.000116
     5  C    0.000000   0.000000  -0.000017   0.000000  -0.021818   0.000000
     6  C    0.000000   0.000000   0.000000   0.000000   0.000884   0.000000
     7  C    0.000000   0.000000   0.000000   0.000000   0.000078   0.000000
     8  N    0.000000   0.000000   0.000000   0.000000   0.000290   0.000000
     9  C    0.000000   0.000000   0.000001   0.000000  -0.011495  -0.000114
    10  C    0.000000  -0.000006   0.501738  -0.020593  -0.000732   0.000291
    11  C    0.000000  -0.000001  -0.030310  -0.000742  -0.000023  -0.000001
    12  C    0.000000   0.000040  -0.011233  -0.000005  -0.000002   0.000000
    13  C    0.000039  -0.006618  -0.030402   0.000001  -0.000005   0.000000
    14  C    0.000806  -0.025631   0.498295  -0.000005   0.000022   0.000000
    15  C   -0.028379   0.501264  -0.025388   0.000000   0.000003   0.000000
    16  C   -0.011635  -0.030174  -0.006170   0.000000  -0.000008   0.000000
    17  C   -0.029286  -0.011544   0.000036   0.000000   0.000000   0.000000
    18  C    0.502612  -0.028995  -0.000001   0.000000   0.000000   0.000000
    19  C    4.799669   0.503705  -0.000006   0.000000   0.000000   0.000000
    20  C    0.503705   4.812395   0.000597   0.000000   0.000000   0.000000
    21  C   -0.000006   0.000597   4.834831  -0.000786  -0.002070   0.000019
    22  C    0.000000   0.000000  -0.000786   4.786329   0.000481  -0.001210
    23  C    0.000000   0.000000  -0.002070   0.000481   5.421522  -0.017709
    24  O    0.000000   0.000000   0.000019  -0.001210  -0.017709   7.835437
    25  O    0.000000   0.000000   0.000000   0.000000   0.000000   0.000000
    26  H    0.000000   0.000000   0.000000  -0.038038   0.000000   0.000201
    27  H    0.000000   0.000000   0.001107  -0.023819   0.000024  -0.000237
    28  H    0.000000   0.000000  -0.000012  -0.000004  -0.023566   0.000228
    29  H    0.000000   0.000000   0.000022   0.000000  -0.003014   0.000000
    30  H    0.000000   0.000000   0.000000   0.000000  -0.000510   0.000000
    31  H    0.000000   0.000000   0.000000   0.000000  -0.000018   0.000000
    32  H    0.000000   0.000000   0.000000   0.000000   0.000012   0.000000
    33  H    0.000000   0.000000   0.000000   0.000000   0.000000   0.000000
    34  H    0.000000   0.000000   0.000000   0.000000  -0.000024   0.000000
    35  H    0.000000   0.000000   0.000000   0.000000  -0.001459   0.000132
    36  H    0.000000   0.000000   0.000000   0.000000  -0.002338  -0.000001
    37  H    0.000000   0.000000   0.001439   0.000025   0.000001   0.000000
    38  H    0.000000   0.000001   0.000033   0.000000   0.000000   0.000000
    39  H   -0.000006  -0.002789   0.001452   0.000000   0.000000   0.000000
    40  H    0.000041   0.001432  -0.002522   0.000000   0.000045   0.000000
    41  H    0.001468   0.000036   0.000001   0.000000   0.000000   0.000000
    42  H   -0.025645   0.001450   0.000000   0.000000   0.000000   0.000000
    43  H    0.394476  -0.025710   0.000000   0.000000   0.000000   0.000000
    44  H   -0.025280   0.394821   0.000025   0.000000   0.000000   0.000000
    45  H   -0.000001   0.000026   0.394697   0.000012  -0.000425  -0.000027
    46  H    0.000000   0.000000   0.000030   0.375542  -0.000014  -0.000011
    47  H    0.000000   0.000000   0.000256   0.385164   0.000037   0.000268
    48  H    0.000000   0.000000   0.000000   0.000000   0.000001   0.000000
             25         26         27         28         29         30
     1  O    0.000000   0.249253  -0.001383   0.000000   0.000000   0.000000
     2  C    0.000000  -0.003097   0.382234   0.000273  -0.000002   0.000000
     3  C    0.000000  -0.000036  -0.021888  -0.005366   0.000037  -0.000009
     4  C   -0.000625   0.000000  -0.000083   0.383014  -0.018905  -0.027122
     5  C   -0.015485   0.000000   0.000000  -0.032301   0.384897   0.386350
     6  C    0.266395   0.000000   0.000000  -0.006151  -0.020375  -0.017211
     7  C   -0.022073   0.000000   0.000000  -0.002462   0.001185  -0.000043
     8  N    0.000219   0.000000   0.000000  -0.000341   0.000068  -0.000919
     9  C    0.000032   0.000000   0.000000  -0.018321   0.001498  -0.006148
    10  C    0.000000  -0.000007  -0.021568  -0.000036   0.000007   0.000000
    11  C    0.000000   0.000001  -0.003925  -0.000002   0.000000   0.000000
    12  C    0.000000   0.000000   0.000028   0.000000   0.000000   0.000000
    13  C    0.000000   0.000000   0.000001   0.000000  -0.000001   0.000000
    14  C    0.000000   0.000000  -0.000021   0.000000   0.000005   0.000000
    15  C    0.000000   0.000000   0.000000   0.000000   0.000000   0.000000
    16  C    0.000000   0.000000   0.000000   0.000000   0.000000   0.000000
    17  C    0.000000   0.000000   0.000000   0.000000   0.000000   0.000000
    18  C    0.000000   0.000000   0.000000   0.000000   0.000000   0.000000
    19  C    0.000000   0.000000   0.000000   0.000000   0.000000   0.000000
    20  C    0.000000   0.000000   0.000000   0.000000   0.000000   0.000000
    21  C    0.000000   0.000000   0.001107  -0.000012   0.000022   0.000000
    22  C    0.000000  -0.038038  -0.023819  -0.000004   0.000000   0.000000
    23  C    0.000000   0.000000   0.000024  -0.023566  -0.003014  -0.000510
    24  O    0.000000   0.000201  -0.000237   0.000228   0.000000   0.000000
    25  O    7.836051   0.000000   0.000000   0.001018  -0.000894   0.000461
    26  H    0.000000   0.597182   0.000995   0.000000   0.000000   0.000000
    27  H    0.000000   0.000995   0.607190   0.000148   0.000001   0.000000
    28  H    0.001018   0.000000   0.000148   0.622528  -0.001065   0.002572
    29  H   -0.000894   0.000000   0.000001  -0.001065   0.580662  -0.021785
    30  H    0.000461   0.000000   0.000000   0.002572  -0.021785   0.603605
    31  H   -0.017773   0.000000   0.000000   0.000133  -0.000195  -0.003721
    32  H   -0.001209   0.000000   0.000000  -0.001003  -0.000016   0.000011
    33  H    0.000048   0.000000   0.000000   0.000031  -0.000025  -0.000008
    34  H    0.000015   0.000000   0.000000  -0.000017  -0.000026  -0.000236
    35  H    0.000002   0.000000   0.000000  -0.003740  -0.000043   0.000102
    36  H    0.000000   0.000000   0.000000   0.001672  -0.000008   0.000606
    37  H    0.000000   0.000000   0.000568   0.000000   0.000000   0.000000
    38  H    0.000000   0.000000  -0.000002   0.000000   0.000000   0.000000
    39  H    0.000000   0.000000   0.000000   0.000000   0.000000   0.000000
    40  H    0.000000   0.000000   0.000000   0.000000   0.000000   0.000000
    41  H    0.000000   0.000000   0.000000   0.000000   0.000000   0.000000
    42  H    0.000000   0.000000   0.000000   0.000000   0.000000   0.000000
    43  H    0.000000   0.000000   0.000000   0.000000   0.000000   0.000000
    44  H    0.000000   0.000000   0.000000   0.000000   0.000000   0.000000
    45  H    0.000000   0.000000   0.000044   0.000002  -0.000001   0.000000
    46  H    0.000000  -0.003615  -0.002471   0.000000   0.000000   0.000000
    47  H    0.000000   0.003753   0.001926   0.000000   0.000000   0.000000
    48  H    0.251692   0.000000   0.000000  -0.000125   0.000054  -0.000062
             31         32         33         34         35         36
     1  O    0.000000   0.000000   0.000000   0.000000   0.000000   0.000000
     2  C    0.000000   0.000000   0.000000   0.000000   0.000000   0.000000
     3  C    0.000000   0.000001   0.000000   0.000000   0.000052   0.000015
     4  C    0.001594  -0.002977   0.000110  -0.000146  -0.026691  -0.020680
     5  C   -0.028357  -0.000937   0.001118  -0.000385   0.001417  -0.001433
     6  C    0.373601  -0.020584  -0.024892  -0.006405  -0.000077   0.000020
     7  C   -0.024117   0.389078   0.383708  -0.041106  -0.000845   0.002206
     8  N   -0.000335  -0.024172  -0.021464   0.338920  -0.021975  -0.020401
     9  C    0.000144  -0.007540   0.002371  -0.030087   0.385890   0.384061
    10  C    0.000000   0.000000   0.000000   0.000000   0.000000   0.000000
    11  C    0.000000   0.000000   0.000000   0.000000   0.000000   0.000000
    12  C    0.000000   0.000000   0.000000   0.000000   0.000000   0.000000
    13  C    0.000000   0.000000   0.000000   0.000000   0.000000   0.000000
    14  C    0.000000   0.000000   0.000000   0.000000   0.000000   0.000000
    15  C    0.000000   0.000000   0.000000   0.000000   0.000000   0.000000
    16  C    0.000000   0.000000   0.000000   0.000000   0.000000   0.000000
    17  C    0.000000   0.000000   0.000000   0.000000   0.000000   0.000000
    18  C    0.000000   0.000000   0.000000   0.000000   0.000000   0.000000
    19  C    0.000000   0.000000   0.000000   0.000000   0.000000   0.000000
    20  C    0.000000   0.000000   0.000000   0.000000   0.000000   0.000000
    21  C    0.000000   0.000000   0.000000   0.000000   0.000000   0.000000
    22  C    0.000000   0.000000   0.000000   0.000000   0.000000   0.000000
    23  C   -0.000018   0.000012   0.000000  -0.000024  -0.001459  -0.002338
    24  O    0.000000   0.000000   0.000000   0.000000   0.000132  -0.000001
    25  O   -0.017773  -0.001209   0.000048   0.000015   0.000002   0.000000
    26  H    0.000000   0.000000   0.000000   0.000000   0.000000   0.000000
    27  H    0.000000   0.000000   0.000000   0.000000   0.000000   0.000000
    28  H    0.000133  -0.001003   0.000031  -0.000017  -0.003740   0.001672
    29  H   -0.000195  -0.000016  -0.000025  -0.000026  -0.000043  -0.000008
    30  H   -0.003721   0.000011  -0.000008  -0.000236   0.000102   0.000606
    31  H    0.636002   0.001625  -0.003379   0.000892   0.000000   0.000005
    32  H    0.001625   0.591673  -0.022627   0.003525   0.000766   0.000148
    33  H   -0.003379  -0.022627   0.603406  -0.000758   0.000034  -0.000064
    34  H    0.000892   0.003525  -0.000758   0.555871   0.002312  -0.004581
    35  H    0.000000   0.000766   0.000034   0.002312   0.586316  -0.021295
    36  H    0.000005   0.000148  -0.000064  -0.004581  -0.021295   0.583556
    37  H    0.000000   0.000000   0.000000   0.000000   0.000000   0.000000
    38  H    0.000000   0.000000   0.000000   0.000000   0.000000   0.000000
    39  H    0.000000   0.000000   0.000000   0.000000   0.000000   0.000000
    40  H    0.000000   0.000000   0.000000   0.000000   0.000000   0.000000
    41  H    0.000000   0.000000   0.000000   0.000000   0.000000   0.000000
    42  H    0.000000   0.000000   0.000000   0.000000   0.000000   0.000000
    43  H    0.000000   0.000000   0.000000   0.000000   0.000000   0.000000
    44  H    0.000000   0.000000   0.000000   0.000000   0.000000   0.000000
    45  H    0.000000   0.000000   0.000000   0.000000   0.000000   0.000000
    46  H    0.000000   0.000000   0.000000   0.000000   0.000000   0.000000
    47  H    0.000000   0.000000   0.000000   0.000000   0.000000   0.000000
    48  H   -0.003122  -0.000048   0.000283   0.000000   0.000000   0.000000
             37         38         39         40         41         42
     1  O   -0.000002   0.000000   0.000000   0.000000   0.000000   0.000000
     2  C   -0.003673  -0.000016   0.000001   0.000004   0.000000   0.000000
     3  C    0.000018   0.000000   0.000000  -0.000005   0.000000   0.000000
     4  C    0.000000   0.000000   0.000000   0.000000   0.000000   0.000000
     5  C    0.000000   0.000000   0.000000   0.000000   0.000000   0.000000
     6  C    0.000000   0.000000   0.000000   0.000000   0.000000   0.000000
     7  C    0.000000   0.000000   0.000000   0.000000   0.000000   0.000000
     8  N    0.000000   0.000000   0.000000   0.000000   0.000000   0.000000
     9  C    0.000000   0.000000   0.000000   0.000000   0.000000   0.000000
    10  C   -0.026304   0.001457   0.000047  -0.000005   0.000000   0.000000
    11  C    0.395124  -0.025711   0.001473   0.000000   0.000000   0.000000
    12  C   -0.025889   0.394529  -0.025774  -0.000001   0.000000   0.000000
    13  C    0.001478  -0.025815   0.395200   0.000023   0.000000   0.000000
    14  C    0.000049   0.001467  -0.025762  -0.003663  -0.000016   0.000001
    15  C    0.000001  -0.000016  -0.003777  -0.025499   0.001443   0.000046
    16  C    0.000000   0.000000   0.000024   0.395259  -0.025591   0.001474
    17  C    0.000000   0.000000  -0.000001  -0.025483   0.394249  -0.025919
    18  C    0.000000   0.000000   0.000000   0.001457  -0.025923   0.394912
    19  C    0.000000   0.000000  -0.000006   0.000041   0.001468  -0.025645
    20  C    0.000000   0.000001  -0.002789   0.001432   0.000036   0.001450
    21  C    0.001439   0.000033   0.001452  -0.002522   0.000001   0.000000
    22  C    0.000025   0.000000   0.000000   0.000000   0.000000   0.000000
    23  C    0.000001   0.000000   0.000000   0.000045   0.000000   0.000000
    24  O    0.000000   0.000000   0.000000   0.000000   0.000000   0.000000
    25  O    0.000000   0.000000   0.000000   0.000000   0.000000   0.000000
    26  H    0.000000   0.000000   0.000000   0.000000   0.000000   0.000000
    27  H    0.000568  -0.000002   0.000000   0.000000   0.000000   0.000000
[...]
    17  C    0.000000   0.000000   0.000000   0.000000   0.000000   0.000000
    18  C    0.000000   0.000000   0.000000   0.000000   0.000000   0.000000
    19  C    0.000000   0.000000   0.000000   0.000000   0.000000   0.000000
    20  C    0.000000   0.000000   0.000000   0.000000   0.000000  -0.000001
    21  C    0.000000   0.000000   0.001102   0.000964  -0.000004   0.000110
    22  C    0.000000  -0.034494  -0.022971  -0.000001   0.000000   0.000000
    23  C   -0.000001  -0.000001   0.000518  -0.025338  -0.001798  -0.001096
    24  O    0.000000   0.000003  -0.000406   0.000163   0.000000   0.000000
    25  O    7.815419   0.000000   0.000000   0.000753  -0.001158   0.000538
    26  H    0.000000   0.639626   0.000906   0.000000   0.000000   0.000000
    27  H    0.000000   0.000906   0.616728   0.000003   0.000000   0.000000
    28  H    0.000753   0.000000   0.000003   0.621287  -0.001772   0.001877
    29  H   -0.001158   0.000000   0.000000  -0.001772   0.598922  -0.021444
    30  H    0.000538   0.000000   0.000000   0.001877  -0.021444   0.616129
    31  H   -0.015559   0.000000   0.000000   0.000049  -0.000428  -0.003407
    32  H   -0.001119   0.000000   0.000000  -0.000125  -0.000033   0.000001
    33  H    0.000351   0.000000   0.000000   0.000002  -0.000021  -0.000010
    34  H    0.000001   0.000000   0.000000  -0.000019  -0.000028  -0.000003
    35  H    0.000002   0.000000   0.000000  -0.005067  -0.000028   0.000006
    36  H    0.000000   0.000000   0.000000   0.001631  -0.000021   0.000245
    37  H    0.000000   0.000000   0.000468  -0.000004  -0.000002   0.000000
    38  H    0.000000   0.000000   0.000000   0.000000  -0.000007   0.000001
    39  H    0.000000   0.000000   0.000000   0.000000   0.000002  -0.000019
    40  H    0.000000   0.000000   0.000000   0.000000   0.000000   0.000002
    41  H    0.000000   0.000000   0.000000   0.000000   0.000000   0.000000
    42  H    0.000000   0.000000   0.000000   0.000000   0.000000   0.000000
    43  H    0.000000   0.000000   0.000000   0.000000   0.000000   0.000000
    44  H    0.000000   0.000000   0.000000   0.000000   0.000000   0.000000
    45  H    0.000000   0.000000   0.000004  -0.000021  -0.000001   0.000000
    46  H    0.000000  -0.003524  -0.002313   0.000000   0.000000   0.000000
    47  H    0.000000   0.003628   0.001631   0.000000   0.000000   0.000000
    48  H    0.231378   0.000000   0.000000  -0.000081   0.000088  -0.000076
             31         32         33         34         35         36
     1  O    0.000000   0.000000   0.000000   0.000000   0.000000   0.000000
     2  C    0.000000   0.000000   0.000000   0.000000   0.000002  -0.000003
     3  C    0.000000   0.000000   0.000000   0.000000   0.000061   0.000035
     4  C    0.001075  -0.000396   0.000030  -0.000759  -0.023213  -0.021169
     5  C   -0.023289   0.000220   0.000954   0.000279   0.001045   0.000062
     6  C    0.365338  -0.022376  -0.021778  -0.003107  -0.000075   0.000009
     7  C   -0.025868   0.373519   0.376465  -0.032518  -0.000478   0.001708
     8  N    0.000471  -0.020308  -0.020815   0.311813  -0.022825  -0.019027
     9  C    0.000033  -0.002647   0.001705  -0.031652   0.377251   0.376784
    10  C    0.000000   0.000000   0.000000   0.000000  -0.000014   0.000015
    11  C    0.000000   0.000000   0.000000   0.000000   0.000000   0.000000
    12  C    0.000000   0.000000   0.000000   0.000000   0.000000   0.000000
    13  C    0.000000   0.000000   0.000000   0.000000   0.000000  -0.000001
    14  C    0.000000   0.000000   0.000000  -0.000002  -0.000001   0.000031
    15  C    0.000000   0.000000   0.000000   0.000001   0.000000  -0.000018
    16  C    0.000000   0.000000   0.000000   0.000018   0.000002  -0.000381
    17  C    0.000000   0.000000   0.000000   0.000000   0.000000  -0.000003
    18  C    0.000000   0.000000   0.000000   0.000000   0.000000   0.000000
    19  C    0.000000   0.000000   0.000000   0.000000   0.000000   0.000000
    20  C    0.000000   0.000000   0.000000   0.000000   0.000000   0.000000
    21  C    0.000000   0.000000   0.000000   0.000002   0.000006   0.000304
    22  C    0.000000   0.000000   0.000000   0.000000   0.000000   0.000000
    23  C   -0.000011   0.000003   0.000000  -0.000005   0.000348  -0.003958
    24  O    0.000000   0.000000   0.000000   0.000000   0.000164  -0.000013
    25  O   -0.015559  -0.001119   0.000351   0.000001   0.000002   0.000000
    26  H    0.000000   0.000000   0.000000   0.000000   0.000000   0.000000
    27  H    0.000000   0.000000   0.000000   0.000000   0.000000   0.000000
    28  H    0.000049  -0.000125   0.000002  -0.000019  -0.005067   0.001631
    29  H   -0.000428  -0.000033  -0.000021  -0.000028  -0.000028  -0.000021
    30  H   -0.003407   0.000001  -0.000010  -0.000003   0.000006   0.000245
    31  H    0.650654   0.001571  -0.004285   0.000324   0.000002   0.000002
    32  H    0.001571   0.610430  -0.020797   0.002674   0.000729   0.000025
    33  H   -0.004285  -0.020797   0.615545  -0.001373   0.000006  -0.000046
    34  H    0.000324   0.002674  -0.001373   0.605139   0.002564  -0.004539
    35  H    0.000002   0.000729   0.000006   0.002564   0.608123  -0.021345
    36  H    0.000002   0.000025  -0.000046  -0.004539  -0.021345   0.613166
    37  H    0.000000   0.000000   0.000000   0.000000   0.000000   0.000000
    38  H    0.000000   0.000000   0.000000   0.000000   0.000000   0.000000
    39  H    0.000000   0.000000   0.000000   0.000000   0.000000   0.000000
    40  H    0.000000   0.000000   0.000000   0.000003  -0.000001   0.000876
    41  H    0.000000   0.000000   0.000000   0.000000   0.000000   0.000001
    42  H    0.000000   0.000000   0.000000   0.000000   0.000000   0.000000
    43  H    0.000000   0.000000   0.000000   0.000000   0.000000   0.000000
    44  H    0.000000   0.000000   0.000000   0.000000   0.000000   0.000000
    45  H    0.000000   0.000000   0.000000   0.000000   0.000001  -0.000055
    46  H    0.000000   0.000000   0.000000   0.000000   0.000000   0.000000
    47  H    0.000000   0.000000   0.000000   0.000000   0.000000   0.000000
    48  H   -0.003441   0.000164   0.000207   0.000001   0.000000   0.000000
             37         38         39         40         41         42
     1  O    0.000000   0.000000   0.000000   0.000000   0.000000   0.000000
     2  C   -0.001856  -0.000011   0.000000   0.000001   0.000000   0.000000
     3  C   -0.000001   0.000000   0.000000   0.000005   0.000000   0.000000
     4  C    0.000013  -0.000001  -0.000001  -0.000031   0.000000   0.000000
     5  C   -0.000001   0.000000  -0.000008   0.000001   0.000000   0.000000
     6  C    0.000000   0.000000   0.000000   0.000000   0.000000   0.000000
     7  C    0.000000   0.000000   0.000000   0.000000   0.000000   0.000000
     8  N    0.000000   0.000000   0.000000  -0.000004   0.000000   0.000000
     9  C    0.000000   0.000000   0.000000  -0.000345   0.000000   0.000000
    10  C   -0.023685   0.001405   0.000055   0.000001   0.000000   0.000000
    11  C    0.386189  -0.025630   0.001264   0.000000   0.000000   0.000000
    12  C   -0.024763   0.388491  -0.024962  -0.000001   0.000000   0.000000
    13  C    0.001355  -0.024355   0.387416   0.000025   0.000000   0.000000
    14  C    0.000020   0.001165  -0.025751  -0.003432  -0.000014   0.000001
    15  C    0.000001  -0.000013  -0.003837  -0.024928   0.001300   0.000031
    16  C    0.000000   0.000000   0.000026   0.388015  -0.024964   0.001359
    17  C    0.000000   0.000000  -0.000001  -0.025254   0.388866  -0.024621
    18  C    0.000000   0.000000   0.000000   0.001380  -0.024764   0.388838
    19  C    0.000000   0.000000  -0.000009   0.000041   0.001376  -0.024627
    20  C    0.000000   0.000000  -0.001048   0.001331   0.000030   0.001353
    21  C    0.000814   0.000031   0.001330  -0.000077   0.000000   0.000000
    22  C    0.000006   0.000000   0.000000   0.000000   0.000000   0.000000
    23  C    0.000290  -0.000014  -0.000019  -0.000056   0.000000   0.000000
    24  O    0.000000   0.000000   0.000000   0.000000   0.000000   0.000000
    25  O    0.000000   0.000000   0.000000   0.000000   0.000000   0.000000
    26  H    0.000000   0.000000   0.000000   0.000000   0.000000   0.000000
    27  H    0.000468   0.000000   0.000000   0.000000   0.000000   0.000000
    28  H   -0.000004   0.000000   0.000000   0.000000   0.000000   0.000000
    29  H   -0.000002  -0.000007   0.000002   0.000000   0.000000   0.000000
    30  H    0.000000   0.000001  -0.000019   0.000002   0.000000   0.000000
    31  H    0.000000   0.000000   0.000000   0.000000   0.000000   0.000000
    32  H    0.000000   0.000000   0.000000   0.000000   0.000000   0.000000
    33  H    0.000000   0.000000   0.000000   0.000000   0.000000   0.000000
    34  H    0.000000   0.000000   0.000000   0.000003   0.000000   0.000000
    35  H    0.000000   0.000000   0.000000  -0.000001   0.000000   0.000000
    36  H    0.000000   0.000000   0.000000   0.000876   0.000001   0.000000
    37  H    0.583192  -0.004018  -0.000030   0.000000   0.000000   0.000000
    38  H   -0.004018   0.585984  -0.003367   0.000000   0.000000   0.000000
    39  H   -0.000030  -0.003367   0.590516   0.000001   0.000000   0.000000
    40  H    0.000000   0.000000   0.000001   0.586129  -0.003722  -0.000032
    41  H    0.000000   0.000000   0.000000  -0.003722   0.583198  -0.003430
    42  H    0.000000   0.000000   0.000000  -0.000032  -0.003430   0.583307
    43  H    0.000000   0.000000   0.000003   0.000002  -0.000033  -0.003425
    44  H    0.000000   0.000003   0.000369  -0.000034   0.000002  -0.000032
    45  H   -0.000014   0.000001  -0.000035  -0.000547   0.000002   0.000000
    46  H    0.000017   0.000000   0.000000   0.000000   0.000000   0.000000
    47  H    0.000002   0.000000   0.000000  -0.000001   0.000000   0.000000
    48  H    0.000000   0.000000   0.000000   0.000000   0.000000   0.000000
             43         44         45         46         47         48
     1  O    0.000000   0.000000  -0.000011  -0.014343  -0.018596   0.000000
     2  C    0.000000   0.000000  -0.002654  -0.025360  -0.021650   0.000000
     3  C    0.000000   0.000000  -0.004584   0.000854  -0.001307   0.000000
     4  C    0.000000   0.000000   0.000345   0.000000  -0.000001   0.000010
     5  C    0.000000   0.000000  -0.000007   0.000000   0.000000   0.002592
     6  C    0.000000   0.000000   0.000000   0.000000   0.000000  -0.032895
     7  C    0.000000   0.000000   0.000000   0.000000   0.000000  -0.002682
     8  N    0.000000   0.000000   0.000000   0.000000   0.000000   0.000005
     9  C    0.000000   0.000000   0.000040   0.000000   0.000000  -0.000001
    10  C    0.000000   0.000000  -0.013286  -0.000506  -0.001359   0.000000
    11  C    0.000000   0.000000   0.000479   0.000086   0.000005   0.000000
    12  C    0.000000  -0.000011   0.000082  -0.000004   0.000000   0.000000
    13  C    0.000000  -0.000996   0.000932   0.000000  -0.000001   0.000000
    14  C   -0.000014  -0.003098  -0.023928  -0.000003  -0.000010   0.000000
    15  C    0.001305  -0.024643  -0.002520   0.000000   0.000001   0.000000
    16  C    0.000031   0.001330  -0.000451   0.000000   0.000000   0.000000
    17  C    0.001376   0.000039   0.000005   0.000000   0.000000   0.000000
    18  C   -0.024825   0.001384  -0.000001   0.000000   0.000000   0.000000
    19  C    0.388834  -0.025413  -0.000001   0.000000   0.000000   0.000000
    20  C   -0.025080   0.387965   0.000025   0.000000   0.000000   0.000000
    21  C    0.000000   0.000012   0.379996   0.000079  -0.000346   0.000000
    22  C    0.000000   0.000000  -0.000283   0.364180   0.372268   0.000000
    23  C    0.000000   0.000000  -0.018113  -0.000056   0.000103   0.000001
    24  O    0.000000   0.000000   0.000099  -0.000005   0.000033   0.000000
    25  O    0.000000   0.000000   0.000000   0.000000   0.000000   0.231378
    26  H    0.000000   0.000000   0.000000  -0.003524   0.003628   0.000000
    27  H    0.000000   0.000000   0.000004  -0.002313   0.001631   0.000000
    28  H    0.000000   0.000000  -0.000021   0.000000   0.000000  -0.000081
    29  H    0.000000   0.000000  -0.000001   0.000000   0.000000   0.000088
    30  H    0.000000   0.000000   0.000000   0.000000   0.000000  -0.000076
    31  H    0.000000   0.000000   0.000000   0.000000   0.000000  -0.003441
    32  H    0.000000   0.000000   0.000000   0.000000   0.000000   0.000164
    33  H    0.000000   0.000000   0.000000   0.000000   0.000000   0.000207
    34  H    0.000000   0.000000   0.000000   0.000000   0.000000   0.000001
    35  H    0.000000   0.000000   0.000001   0.000000   0.000000   0.000000
    36  H    0.000000   0.000000  -0.000055   0.000000   0.000000   0.000000
    37  H    0.000000   0.000000  -0.000014   0.000017   0.000002   0.000000
    38  H    0.000000   0.000003   0.000001   0.000000   0.000000   0.000000
    39  H    0.000003   0.000369  -0.000035   0.000000   0.000000   0.000000
    40  H    0.000002  -0.000034  -0.000547   0.000000  -0.000001   0.000000
    41  H   -0.000033   0.000002   0.000002   0.000000   0.000000   0.000000
    42  H   -0.003425  -0.000032   0.000000   0.000000   0.000000   0.000000
    43  H    0.585130  -0.003772   0.000000   0.000000   0.000000   0.000000
    44  H   -0.003772   0.587769   0.000001   0.000000   0.000000   0.000000
    45  H    0.000000   0.000001   0.601078   0.000015   0.000370   0.000000
    46  H    0.000000   0.000000   0.000015   0.638856  -0.023437   0.000000
    47  H    0.000000   0.000000   0.000370  -0.023437   0.609959   0.000000
    48  H    0.000000   0.000000   0.000000   0.000000   0.000000   0.643310
 Mulliken atomic charges:
              1
     1  O   -0.235475
     2  C   -0.083238
     3  C    0.156403
     4  C   -0.059355
     5  C   -0.142234
     6  C    0.018064
     7  C   -0.084164
     8  N   -0.293519
     9  C   -0.069340
    10  C   -0.011251
    11  C   -0.076092
    12  C   -0.085045
    13  C   -0.083119
    14  C    0.002094
    15  C   -0.008054
    16  C   -0.079722
    17  C   -0.079089
    18  C   -0.077536
    19  C   -0.079302
    20  C   -0.076974
    21  C   -0.082874
    22  C   -0.054406
    23  C   -0.026087
    24  O   -0.173059
    25  O   -0.246552
    26  H    0.165300
    27  H    0.073305
    28  H    0.080576
    29  H    0.086772
    30  H    0.072525
    31  H    0.056766
    32  H    0.078467
    33  H    0.073860
    34  H    0.151185
    35  H    0.082735
    36  H    0.075684
    37  H    0.082010
    38  H    0.080336
    39  H    0.078105
    40  H    0.080651
    41  H    0.082151
    42  H    0.081278
    43  H    0.080466
    44  H    0.079125
    45  H    0.083038
    46  H    0.065463
    47  H    0.078708
    48  H    0.161419
 Sum of Mulliken atomic charges =   0.00000
 Mulliken charges with hydrogens summed into heavy atoms:
              1
     1  O   -0.070175
     2  C   -0.009933
     3  C    0.156403
     4  C    0.021222
     5  C    0.017063
     6  C    0.074830
     7  C    0.068163
     8  N   -0.142334
     9  C    0.089078
    10  C   -0.011251
    11  C    0.005918
    12  C   -0.004709
    13  C   -0.005014
    14  C    0.002094
    15  C   -0.008054
    16  C    0.000929
    17  C    0.003061
    18  C    0.003742
    19  C    0.001164
    20  C    0.002151
    21  C    0.000164
    22  C    0.089764
    23  C   -0.026087
    24  O   -0.173059
    25  O   -0.085133
 Sum of Mulliken charges with hydrogens summed into heavy atoms =   0.00000
 Electronic spatial extent (au):  <R**2>=           8740.9938
 Charge=              0.0000 electrons
 Dipole moment (field-independent basis, Debye):
    X=             -0.5938    Y=              3.4565    Z=              0.2442  Tot=              3.5156
 Quadrupole moment (field-independent basis, Debye-Ang):
   XX=           -129.2988   YY=           -143.7968   ZZ=           -130.9306
   XY=              2.7955   XZ=             -5.0081   YZ=              1.6074
 Traceless Quadrupole moment (field-independent basis, Debye-Ang):
   XX=              5.3766   YY=             -9.1214   ZZ=              3.7448
   XY=              2.7955   XZ=             -5.0081   YZ=              1.6074
 Octapole moment (field-independent basis, Debye-Ang**2):
  XXX=             14.3241  YYY=             82.1086  ZZZ=           -137.1730  XYY=             43.6473
  XXY=             12.3863  XXZ=            -41.9775  XZZ=             62.0205  YZZ=             25.0992
  YYZ=            -62.0603  XYZ=             32.0490
 Hexadecapole moment (field-independent basis, Debye-Ang**3):
 XXXX=          -3532.3643 YYYY=          -2586.8079 ZZZZ=          -4129.0065 XXXY=           -434.4222
 XXXZ=            -71.6017 YYYX=           -672.2174 YYYZ=            192.9766 ZZZX=            245.2861
 ZZZY=            254.6542 XXYY=          -1027.6946 XXZZ=          -1270.6514 YYZZ=          -1104.2404
 XXYZ=             54.2136 YYXZ=            -10.7524 ZZXY=            -82.7903
 N-N= 2.199701815177D+03 E-N=-6.911783063660D+03  KE= 1.062316846823D+03
 1\1\GINC-A869AA4EB327\FOpt\RB3LYP\STO-3G\C21H23N1O3\ROOT\09-Oct-2022\0
 \\# opt b3lyp/sto-3g nosymm\\Title Card Required\\0,1\O,-4.0275253618,
 -3.734712381,-0.2947629003\C,-2.9652616436,-1.7136247389,0.8273312098\
 C,-1.5379069284,-2.2797646392,1.2568794915\C,0.1590294445,-0.418235913
 5,2.2431461565\C,0.4834249504,1.106249518,2.3331340424\C,1.3906207369,
 1.3815814409,3.5859299857\C,2.4962711873,0.2393433566,3.7411383049\N,2
 .7767893258,-0.5477965169,2.4771768619\C,1.5023732349,-1.2452245398,2.
 0282623767\C,-2.2894874116,-0.3085865854,0.7024452685\C,-2.9271876084,
 1.0081892529,0.9567473943\C,-2.36080783,2.149981913,0.4800572973\C,-1.
 1648054531,2.1197549321,-0.3701989339\C,-0.5615575621,0.956866885,-0.7
 792340876\C,0.5652701032,0.9389154379,-1.7803669119\C,1.4067534136,-0.
 2014019705,-1.8995315917\C,2.4648822501,-0.2313107089,-2.825675025\C,2
 .7090001615,0.8769441392,-3.6599250051\C,1.8823359425,2.0149874822,-3.
 5610018355\C,0.8243762078,2.0459595389,-2.6368708372\C,-1.0764121578,-
 0.3819127633,-0.281246054\C,-3.7059396541,-2.309018383,-0.4259061237\C
 ,-0.8876228192,-0.8522032566,1.188440738\O,-1.1268375877,-3.3902117671
 ,1.6300600722\O,0.4865867616,1.4398645386,4.7463354253\H,-4.6283109285
 ,-3.7353635328,0.5404928809\H,-3.6448000126,-1.7424020598,1.7030373217
 \H,-0.2557362242,-0.705440438,3.2288626339\H,-0.4451098475,1.689769967
 5,2.4419153122\H,0.99565061,1.4487716673,1.419809663\H,1.9078921898,2.
 360080832,3.435868432\H,2.1551557212,-0.4787780731,4.5109852075\H,3.44
 99737965,0.6842652406,4.08182363\H,2.9655840797,0.1894552239,1.7359784
 392\H,1.4221007041,-2.1989095898,2.583655502\H,1.6299682205,-1.4872788
 997,0.9581358327\H,-3.8719654258,1.0268873011,1.5178546801\H,-2.820910
 2627,3.1267828401,0.6812846625\H,-0.7863686035,3.0844881308,-0.7310193
 375\H,1.2360770214,-1.0690540561,-1.2501585801\H,3.1029713493,-1.12279
 88071,-2.8940094232\H,3.5341059243,0.8539488502,-4.3843058894\H,2.0594
 49857,2.8804638605,-4.2137415496\H,0.1808440235,2.9333732282,-2.588781
 9478\H,-1.0671819927,-1.1688117447,-1.0511594747\H,-4.6147024847,-1.68
 91026536,-0.6186133632\H,-3.0542240268,-2.2292274879,-1.3188688713\H,1
 .1471746095,1.6262459294,5.51258892\\Version=EM64L-G09RevA.01\HF=-1080
 .6446291\RMSD=6.875e-09\RMSF=6.380e-06\Dipole=-0.2336139,1.3598991,0.0
 960939\Quadrupole=3.9973367,-6.7815352,2.7841985,2.0783891,-3.7233892,
 1.1950909\PG=C01 [X(C21H23N1O3)]\\@


 Boundary, n.  In political geography, an imaginary
 line between two nations, separating the imaginary
 rights of one from the imaginary rights of another.
                               -- Ambrose Bierce
 Job cpu time:  0 days  1 hours 39 minutes 19.9 seconds.
 File lengths (MBytes):  RWF=     23 Int=      0 D2E=      0 Chk=      4 Scr=      1
 Normal termination of Gaussian 09 at Sun Oct  9 21:45:19 2022.
