 Entering Gaussian System, Link 0=g09
 Input=compuesto1.gjf
 Output=compuesto1.log
 Initial command:
 /dataV/g09/l1.exe /tmp/Gau-2289.inp -scrdir=/tmp/
 Entering Link 1 = /dataV/g09/l1.exe PID=      2291.
  
 Copyright (c) 1988,1990,1992,1993,1995,1998,2003,2009, Gaussian, Inc.
                  All Rights Reserved.
  
 This is part of the Gaussian(R) 09 program.  It is based on
 the Gaussian(R) 03 system (copyright 2003, Gaussian, Inc.),
 the Gaussian(R) 98 system (copyright 1998, Gaussian, Inc.),
 the Gaussian(R) 94 system (copyright 1995, Gaussian, Inc.),
 the Gaussian 92(TM) system (copyright 1992, Gaussian, Inc.),
 the Gaussian 90(TM) system (copyright 1990, Gaussian, Inc.),
 the Gaussian 88(TM) system (copyright 1988, Gaussian, Inc.),
 the Gaussian 86(TM) system (copyright 1986, Carnegie Mellon
 University), and the Gaussian 82(TM) system (copyright 1983,
 Carnegie Mellon University). Gaussian is a federally registered
 trademark of Gaussian, Inc.
  
 This software contains proprietary and confidential information,
 including trade secrets, belonging to Gaussian, Inc.
  
 This software is provided under written license and may be
 used, copied, transmitted, or stored only in accord with that
 written license.
  
 The following legend is applicable only to US Government
 contracts under FAR:
  
                    RESTRICTED RIGHTS LEGEND
  
 Use, reproduction and disclosure by the US Government is
 subject to restrictions as set forth in subparagraphs (a)
 and (c) of the Commercial Computer Software - Restricted
 Rights clause in FAR 52.227-19.
  
 Gaussian, Inc.
 340 Quinnipiac St., Bldg. 40, Wallingford CT 06492
  
  
 ---------------------------------------------------------------
 Warning -- This program may not be used in any manner that
 competes with the business of Gaussian, Inc. or will provide
 assistance to any competitor of Gaussian, Inc.  The licensee
 of this program is prohibited from giving any competitor of
 Gaussian, Inc. access to this program.  By using this program,
 the user acknowledges that Gaussian, Inc. is engaged in the
 business of creating and licensing software in the field of
 computational chemistry and represents and warrants to the
 licensee that it is not a competitor of Gaussian, Inc. and that
 it will not use this program in any manner prohibited above.
 ---------------------------------------------------------------
  

 Cite this work as:
 Gaussian 09, Revision A.01,
 M. J. Frisch, G. W. Trucks, H. B. Schlegel, G. E. Scuseria, 
 M. A. Robb, J. R. Cheeseman, G. Scalmani, V. Barone, B. Mennucci, 
 G. A. Petersson, H. Nakatsuji, M. Caricato, X. Li, H. P. Hratchian, 
 A. F. Izmaylov, J. Bloino, G. Zheng, J. L. Sonnenberg, M. Hada, 
 M. Ehara, K. Toyota, R. Fukuda, J. Hasegawa, M. Ishida, T. Nakajima, 
 Y. Honda, O. Kitao, H. Nakai, T. Vreven, J. A. Montgomery, Jr., 
 J. E. Peralta, F. Ogliaro, M. Bearpark, J. J. Heyd, E. Brothers, 
 K. N. Kudin, V. N. Staroverov, R. Kobayashi, J. Normand, 
 K. Raghavachari, A. Rendell, J. C. Burant, S. S. Iyengar, J. Tomasi, 
 M. Cossi, N. Rega, J. M. Millam, M. Klene, J. E. Knox, J. B. Cross, 
 V. Bakken, C. Adamo, J. Jaramillo, R. Gomperts, R. E. Stratmann, 
 O. Yazyev, A. J. Austin, R. Cammi, C. Pomelli, J. W. Ochterski, 
 R. L. Martin, K. Morokuma, V. G. Zakrzewski, G. A. Voth, 
 P. Salvador, J. J. Dannenberg, S. Dapprich, A. D. Daniels, 
 O. Farkas, J. B. Foresman, J. V. Ortiz, J. Cioslowski, 
 and D. J. Fox, Gaussian, Inc., Wallingford CT, 2009.
 
 ******************************************
 Gaussian 09:  EM64L-G09RevA.01  8-May-2009
                 9-Oct-2022 
 ******************************************
 %nprocshared=3
 Will use up to    3 processors via shared memory.
 %mem=12GB
 %chk=compuesto1.chk
 -------------------------
 # opt b3lyp/6-311g nosymm
 -------------------------
 1/14=-1,18=20,19=15,26=3,38=1/1,3;
 2/9=110,12=2,15=1,17=6,18=5,40=1/2;
 3/5=4,6=6,11=2,16=1,25=1,30=1,71=1,74=-5/1,2,3;
 4//1;
 5/5=2,38=5/2;
 6/7=2,8=2,9=2,10=2,28=1/1;
 7/30=1/1,2,3,16;
 1/14=-1,18=20,19=15/3(2);
 2/9=110,15=1/2;
 99//99;
 2/9=110,15=1/2;
 3/5=4,6=6,11=2,16=1,25=1,30=1,71=1,74=-5/1,2,3;
 4/5=5,16=3/1;
 5/5=2,38=5/2;
 7/30=1/1,2,3,16;
 1/14=-1,18=20,19=15/3(-5);
 2/9=110,15=1/2;
 6/7=2,8=2,9=2,10=2,19=2,28=1/1;
 99/9=1/99;
 -------------------
 Title Card Required
 -------------------
 Symbolic Z-matrix:
 Charge =  0 Multiplicity = 1
 O(PDBName=O1,ResName=UNL,ResNum=1) -3.675    -1.584     0.721 
 C(PDBName=C1,ResName=UNL,ResNum=1) -2.858    -0.5       1.167 
 C(PDBName=C2,ResName=UNL,ResNum=1) -1.587    -1.057     1.835 
 O(PDBName=O2,ResName=UNL,ResNum=1) -0.769     0.028     2.282 
 C(PDBName=C3,ResName=UNL,ResNum=1)  0.41     -0.489     2.905 
 C(PDBName=C4,ResName=UNL,ResNum=1)  1.341     0.567     3.386 
 C(PDBName=C5,ResName=UNL,ResNum=1)  2.372    -0.176     4.279 
 C(PDBName=C6,ResName=UNL,ResNum=1)  2.629    -1.604     3.704 
 N(PDBName=N1,ResName=UNL,ResNum=1)  2.648    -1.492     2.283 
 C(PDBName=C7,ResName=UNL,ResNum=1)  1.223    -1.314     1.849 
 C(PDBName=C8,ResName=UNL,ResNum=1) -2.464     0.376    -0.037 
 C(PDBName=C9,ResName=UNL,ResNum=1) -3.276     1.453    -0.415 
 C(PDBName=C10,ResName=UNL,ResNum=1) -2.919     2.249    -1.512 
 C(PDBName=C11,ResName=UNL,ResNum=1) -1.748     1.969    -2.229 
 C(PDBName=C12,ResName=UNL,ResNum=1) -0.935     0.892    -1.851 
 C(PDBName=C13,ResName=UNL,ResNum=1)  0.351     0.584    -2.639 
 C(PDBName=C14,ResName=UNL,ResNum=1)  1.164    -0.493    -2.261 
 C(PDBName=C15,ResName=UNL,ResNum=1)  2.335    -0.773    -2.979 
 C(PDBName=C16,ResName=UNL,ResNum=1)  2.692     0.024    -4.076 
 C(PDBName=C17,ResName=UNL,ResNum=1)  1.878     1.1      -4.454 
 C(PDBName=C18,ResName=UNL,ResNum=1)  0.708     1.381    -3.736 
 C(PDBName=C19,ResName=UNL,ResNum=1) -1.293     0.096    -0.754 
 H(PDBName=H1,ResName=UNL,ResNum=1) -3.921    -2.13      1.471 
 H(PDBName=H2,ResName=UNL,ResNum=1) -3.402     0.09      1.874 
 H(PDBName=H3,ResName=UNL,ResNum=1) -1.861    -1.665     2.672 
 H(PDBName=H4,ResName=UNL,ResNum=1) -1.042    -1.647     1.129 
 H(PDBName=H5,ResName=UNL,ResNum=1)  0.125    -1.081     3.75 
 H(PDBName=H6,ResName=UNL,ResNum=1)  0.874     1.34      3.959 
 H(PDBName=H7,ResName=UNL,ResNum=1)  1.795     1.003     2.52 
 H(PDBName=H8,ResName=UNL,ResNum=1)  2.01     -0.318     5.276 
 H(PDBName=H9,ResName=UNL,ResNum=1)  3.256     0.426     4.3 
 H(PDBName=H10,ResName=UNL,ResNum=1)  1.832    -2.273     3.955 
 H(PDBName=H11,ResName=UNL,ResNum=1)  3.546    -1.98      4.107 
 H(PDBName=H12,ResName=UNL,ResNum=1)  3.218    -0.7       2.061 
 H(PDBName=H13,ResName=UNL,ResNum=1)  0.724    -2.254     1.739 
 H(PDBName=H14,ResName=UNL,ResNum=1)  1.256    -0.81      0.906 
 H(PDBName=H15,ResName=UNL,ResNum=1) -4.17      1.668     0.133 
 H(PDBName=H16,ResName=UNL,ResNum=1) -3.54      3.072    -1.801 
 H(PDBName=H17,ResName=UNL,ResNum=1) -1.475     2.576    -3.067 
 H(PDBName=H18,ResName=UNL,ResNum=1)  0.892    -1.101    -1.424 
 H(PDBName=H19,ResName=UNL,ResNum=1)  2.956    -1.595    -2.69 
 H(PDBName=H20,ResName=UNL,ResNum=1)  3.585    -0.19     -4.624 
 H(PDBName=H21,ResName=UNL,ResNum=1)  2.151     1.708    -5.291 
 H(PDBName=H22,ResName=UNL,ResNum=1)  0.087     2.203    -4.025 
 H(PDBName=H23,ResName=UNL,ResNum=1) -0.672    -0.726    -0.465 
 

 GradGradGradGradGradGradGradGradGradGradGradGradGradGradGradGradGradGrad
 Berny optimization.
 Initialization pass.
                           ----------------------------
                           !    Initial Parameters    !
                           ! (Angstroms and Degrees)  !
 --------------------------                            --------------------------
 ! Name  Definition              Value          Derivative Info.                !
 --------------------------------------------------------------------------------
 ! R1    R(1,2)                  1.4288         estimate D2E/DX2                !
 ! R2    R(1,23)                 0.9598         estimate D2E/DX2                !
 ! R3    R(2,3)                  1.5401         estimate D2E/DX2                !
 ! R4    R(2,11)                 1.5402         estimate D2E/DX2                !
 ! R5    R(2,24)                 1.0695         estimate D2E/DX2                !
 ! R6    R(3,4)                  1.4304         estimate D2E/DX2                !
 ! R7    R(3,25)                 1.0702         estimate D2E/DX2                !
 ! R8    R(3,26)                 1.0694         estimate D2E/DX2                !
 ! R9    R(4,5)                  1.4302         estimate D2E/DX2                !
 ! R10   R(5,6)                  1.4877         estimate D2E/DX2                !
 ! R11   R(5,10)                 1.5674         estimate D2E/DX2                !
 ! R12   R(5,27)                 1.0704         estimate D2E/DX2                !
 ! R13   R(6,7)                  1.5532         estimate D2E/DX2                !
 ! R14   R(6,28)                 1.0696         estimate D2E/DX2                !
 ! R15   R(6,29)                 1.0706         estimate D2E/DX2                !
 ! R16   R(7,8)                  1.5607         estimate D2E/DX2                !
 ! R17   R(7,30)                 1.0701         estimate D2E/DX2                !
 ! R18   R(7,31)                 1.0697         estimate D2E/DX2                !
 ! R19   R(8,9)                  1.4255         estimate D2E/DX2                !
 ! R20   R(8,32)                 1.0704         estimate D2E/DX2                !
 ! R21   R(8,33)                 1.0699         estimate D2E/DX2                !
 ! R22   R(9,10)                 1.5002         estimate D2E/DX2                !
 ! R23   R(9,34)                 1.0007         estimate D2E/DX2                !
 ! R24   R(10,35)                1.0699         estimate D2E/DX2                !
 ! R25   R(10,36)                1.0697         estimate D2E/DX2                !
 ! R26   R(11,12)                1.4008         estimate D2E/DX2                !
 ! R27   R(11,22)                1.4013         estimate D2E/DX2                !
 ! R28   R(12,13)                1.4016         estimate D2E/DX2                !
 ! R29   R(12,37)                1.0704         estimate D2E/DX2                !
 ! R30   R(13,14)                1.4013         estimate D2E/DX2                !
 ! R31   R(13,38)                1.0707         estimate D2E/DX2                !
 ! R32   R(14,15)                1.4014         estimate D2E/DX2                !
 ! R33   R(14,39)                1.0702         estimate D2E/DX2                !
 ! R34   R(15,16)                1.5394         estimate D2E/DX2                !
 ! R35   R(15,22)                1.4019         estimate D2E/DX2                !
 ! R36   R(16,17)                1.4014         estimate D2E/DX2                !
 ! R37   R(16,21)                1.4022         estimate D2E/DX2                !
 ! R38   R(17,18)                1.4018         estimate D2E/DX2                !
 ! R39   R(17,40)                1.0697         estimate D2E/DX2                !
 ! R40   R(18,19)                1.4022         estimate D2E/DX2                !
 ! R41   R(18,41)                1.07           estimate D2E/DX2                !
 ! R42   R(19,20)                1.4012         estimate D2E/DX2                !
 ! R43   R(19,42)                1.0694         estimate D2E/DX2                !
 ! R44   R(20,21)                1.4012         estimate D2E/DX2                !
 ! R45   R(20,43)                1.0699         estimate D2E/DX2                !
 ! R46   R(21,44)                1.07           estimate D2E/DX2                !
 ! R47   R(22,45)                1.07           estimate D2E/DX2                !
 ! A1    A(2,1,23)             109.5265         estimate D2E/DX2                !
 ! A2    A(1,2,3)              109.445          estimate D2E/DX2                !
 ! A3    A(1,2,11)             109.4975         estimate D2E/DX2                !
 ! A4    A(1,2,24)             109.5132         estimate D2E/DX2                !
 ! A5    A(3,2,11)             109.4902         estimate D2E/DX2                !
 ! A6    A(3,2,24)             109.4239         estimate D2E/DX2                !
 ! A7    A(11,2,24)            109.4575         estimate D2E/DX2                !
 ! A8    A(2,3,4)              109.4599         estimate D2E/DX2                !
 ! A9    A(2,3,25)             109.4755         estimate D2E/DX2                !
 ! A10   A(2,3,26)             109.4984         estimate D2E/DX2                !
 ! A11   A(4,3,25)             109.4471         estimate D2E/DX2                !
 ! A12   A(4,3,26)             109.4724         estimate D2E/DX2                !
 ! A13   A(25,3,26)            109.4741         estimate D2E/DX2                !
 ! A14   A(3,4,5)              109.4719         estimate D2E/DX2                !
 ! A15   A(4,5,6)              113.5863         estimate D2E/DX2                !
 ! A16   A(4,5,10)             108.9282         estimate D2E/DX2                !
 ! A17   A(4,5,27)             108.9243         estimate D2E/DX2                !
 ! A18   A(6,5,10)             105.4766         estimate D2E/DX2                !
 ! A19   A(6,5,27)             107.6961         estimate D2E/DX2                !
 ! A20   A(10,5,27)            112.2634         estimate D2E/DX2                !
 ! A21   A(5,6,7)              105.1728         estimate D2E/DX2                !
 ! A22   A(5,6,28)             114.3921         estimate D2E/DX2                !
 ! A23   A(5,6,29)             107.033          estimate D2E/DX2                !
 ! A24   A(7,6,28)             109.1197         estimate D2E/DX2                !
 ! A25   A(7,6,29)             112.2342         estimate D2E/DX2                !
 ! A26   A(28,6,29)            108.9161         estimate D2E/DX2                !
 ! A27   A(6,7,8)              109.5829         estimate D2E/DX2                !
 ! A28   A(6,7,30)             111.998          estimate D2E/DX2                !
 ! A29   A(6,7,31)             106.8953         estimate D2E/DX2                !
 ! A30   A(8,7,30)             106.1129         estimate D2E/DX2                !
 ! A31   A(8,7,31)             112.7096         estimate D2E/DX2                !
 ! A32   A(30,7,31)            109.6289         estimate D2E/DX2                !
 ! A33   A(7,8,9)              107.3109         estimate D2E/DX2                !
 ! A34   A(7,8,32)             111.2752         estimate D2E/DX2                !
 ! A35   A(7,8,33)             108.8997         estimate D2E/DX2                !
 ! A36   A(9,8,32)             107.024          estimate D2E/DX2                !
 ! A37   A(9,8,33)             113.058          estimate D2E/DX2                !
 ! A38   A(32,8,33)            109.2809         estimate D2E/DX2                !
 ! A39   A(8,9,10)             106.5608         estimate D2E/DX2                !
 ! A40   A(8,9,34)             106.9122         estimate D2E/DX2                !
 ! A41   A(10,9,34)            112.5165         estimate D2E/DX2                !
 ! A42   A(5,10,9)             111.1146         estimate D2E/DX2                !
 ! A43   A(5,10,35)            106.8455         estimate D2E/DX2                !
 ! A44   A(5,10,36)            111.2182         estimate D2E/DX2                !
 ! A45   A(9,10,35)            111.6238         estimate D2E/DX2                !
 ! A46   A(9,10,36)            106.3565         estimate D2E/DX2                !
 ! A47   A(35,10,36)           109.7363         estimate D2E/DX2                !
 ! A48   A(2,11,12)            119.9969         estimate D2E/DX2                !
 ! A49   A(2,11,22)            120.0059         estimate D2E/DX2                !
 ! A50   A(12,11,22)           119.9971         estimate D2E/DX2                !
 ! A51   A(11,12,13)           120.014          estimate D2E/DX2                !
 ! A52   A(11,12,37)           120.0284         estimate D2E/DX2                !
 ! A53   A(13,12,37)           119.9575         estimate D2E/DX2                !
 ! A54   A(12,13,14)           119.9887         estimate D2E/DX2                !
 ! A55   A(12,13,38)           120.003          estimate D2E/DX2                !
 ! A56   A(14,13,38)           120.0082         estimate D2E/DX2                !
 ! A57   A(13,14,15)           120.0229         estimate D2E/DX2                !
 ! A58   A(13,14,39)           120.0331         estimate D2E/DX2                !
 ! A59   A(15,14,39)           119.9438         estimate D2E/DX2                !
 ! A60   A(14,15,16)           120.0241         estimate D2E/DX2                !
 ! A61   A(14,15,22)           119.9549         estimate D2E/DX2                !
 ! A62   A(16,15,22)           120.021          estimate D2E/DX2                !
 ! A63   A(15,16,17)           120.0241         estimate D2E/DX2                !
 ! A64   A(15,16,21)           119.9647         estimate D2E/DX2                !
 ! A65   A(17,16,21)           120.0112         estimate D2E/DX2                !
 ! A66   A(16,17,18)           119.9981         estimate D2E/DX2                !
 ! A67   A(16,17,40)           120.025          estimate D2E/DX2                !
 ! A68   A(18,17,40)           119.9769         estimate D2E/DX2                !
 ! A69   A(17,18,19)           119.9907         estimate D2E/DX2                !
 ! A70   A(17,18,41)           119.9947         estimate D2E/DX2                !
 ! A71   A(19,18,41)           120.0145         estimate D2E/DX2                !
 ! A72   A(18,19,20)           119.9768         estimate D2E/DX2                !
 ! A73   A(18,19,42)           119.986          estimate D2E/DX2                !
 ! A74   A(20,19,42)           120.0372         estimate D2E/DX2                !
 ! A75   A(19,20,21)           120.0564         estimate D2E/DX2                !
 ! A76   A(19,20,43)           119.9468         estimate D2E/DX2                !
 ! A77   A(21,20,43)           119.9968         estimate D2E/DX2                !
 ! A78   A(16,21,20)           119.9669         estimate D2E/DX2                !
 ! A79   A(16,21,44)           120.0145         estimate D2E/DX2                !
 ! A80   A(20,21,44)           120.0186         estimate D2E/DX2                !
 ! A81   A(11,22,15)           120.0221         estimate D2E/DX2                !
 ! A82   A(11,22,45)           120.0196         estimate D2E/DX2                !
 ! A83   A(15,22,45)           119.9583         estimate D2E/DX2                !
 ! D1    D(23,1,2,3)            59.9949         estimate D2E/DX2                !
 ! D2    D(23,1,2,11)         -179.9819         estimate D2E/DX2                !
 ! D3    D(23,1,2,24)          -59.9568         estimate D2E/DX2                !
 ! D4    D(1,2,3,4)           -179.9828         estimate D2E/DX2                !
 ! D5    D(1,2,3,25)           -60.0167         estimate D2E/DX2                !
 ! D6    D(1,2,3,26)            60.0061         estimate D2E/DX2                !
 ! D7    D(11,2,3,4)            59.9895         estimate D2E/DX2                !
 ! D8    D(11,2,3,25)          179.9556         estimate D2E/DX2                !
 ! D9    D(11,2,3,26)          -60.0217         estimate D2E/DX2                !
 ! D10   D(24,2,3,4)           -59.9764         estimate D2E/DX2                !
 ! D11   D(24,2,3,25)           59.9897         estimate D2E/DX2                !
 ! D12   D(24,2,3,26)         -179.9875         estimate D2E/DX2                !
 ! D13   D(1,2,11,12)           90.0528         estimate D2E/DX2                !
 ! D14   D(1,2,11,22)          -89.9723         estimate D2E/DX2                !
 ! D15   D(3,2,11,12)         -149.9517         estimate D2E/DX2                !
 ! D16   D(3,2,11,22)           30.0233         estimate D2E/DX2                !
 ! D17   D(24,2,11,12)         -30.0064         estimate D2E/DX2                !
 ! D18   D(24,2,11,22)         149.9686         estimate D2E/DX2                !
 ! D19   D(2,3,4,5)            179.874          estimate D2E/DX2                !
 ! D20   D(25,3,4,5)            59.8905         estimate D2E/DX2                !
 ! D21   D(26,3,4,5)           -60.099          estimate D2E/DX2                !
 ! D22   D(3,4,5,6)            179.0387         estimate D2E/DX2                !
 ! D23   D(3,4,5,10)            61.8103         estimate D2E/DX2                !
 ! D24   D(3,4,5,27)           -60.9401         estimate D2E/DX2                !
 ! D25   D(4,5,6,7)            168.2079         estimate D2E/DX2                !
 ! D26   D(4,5,6,28)            48.4984         estimate D2E/DX2                !
 ! D27   D(4,5,6,29)           -72.2458         estimate D2E/DX2                !
 ! D28   D(10,5,6,7)           -72.5724         estimate D2E/DX2                !
 ! D29   D(10,5,6,28)          167.7181         estimate D2E/DX2                !
 ! D30   D(10,5,6,29)           46.9739         estimate D2E/DX2                !
 ! D31   D(27,5,6,7)            47.4931         estimate D2E/DX2                !
 ! D32   D(27,5,6,28)          -72.2165         estimate D2E/DX2                !
 ! D33   D(27,5,6,29)          167.0394         estimate D2E/DX2                !
 ! D34   D(4,5,10,9)           161.148          estimate D2E/DX2                !
 ! D35   D(4,5,10,35)          -76.8691         estimate D2E/DX2                !
 ! D36   D(4,5,10,36)           42.8695         estimate D2E/DX2                !
 ! D37   D(6,5,10,9)            38.8806         estimate D2E/DX2                !
 ! D38   D(6,5,10,35)          160.8636         estimate D2E/DX2                !
 ! D39   D(6,5,10,36)          -79.3979         estimate D2E/DX2                !
 ! D40   D(27,5,10,9)          -78.1306         estimate D2E/DX2                !
 ! D41   D(27,5,10,35)          43.8524         estimate D2E/DX2                !
 ! D42   D(27,5,10,36)         163.5909         estimate D2E/DX2                !
 ! D43   D(5,6,7,8)             34.0683         estimate D2E/DX2                !
 ! D44   D(5,6,7,30)           -83.4102         estimate D2E/DX2                !
 ! D45   D(5,6,7,31)           156.5004         estimate D2E/DX2                !
 ! D46   D(28,6,7,8)           157.2221         estimate D2E/DX2                !
 ! D47   D(28,6,7,30)           39.7436         estimate D2E/DX2                !
 ! D48   D(28,6,7,31)          -80.3458         estimate D2E/DX2                !
 ! D49   D(29,6,7,8)           -81.9551         estimate D2E/DX2                !
 ! D50   D(29,6,7,30)          160.5664         estimate D2E/DX2                !
 ! D51   D(29,6,7,31)           40.477          estimate D2E/DX2                !
 ! D52   D(6,7,8,9)             38.7412         estimate D2E/DX2                !
 ! D53   D(6,7,8,32)           -78.0315         estimate D2E/DX2                !
 ! D54   D(6,7,8,33)           161.4473         estimate D2E/DX2                !
 ! D55   D(30,7,8,9)           159.8454         estimate D2E/DX2                !
 ! D56   D(30,7,8,32)           43.0726         estimate D2E/DX2                !
 ! D57   D(30,7,8,33)          -77.4485         estimate D2E/DX2                !
 ! D58   D(31,7,8,9)           -80.1582         estimate D2E/DX2                !
 ! D59   D(31,7,8,32)          163.0691         estimate D2E/DX2                !
 ! D60   D(31,7,8,33)           42.548          estimate D2E/DX2                !
 ! D61   D(7,8,9,10)           -74.5875         estimate D2E/DX2                !
 ! D62   D(7,8,9,34)            45.9432         estimate D2E/DX2                !
 ! D63   D(32,8,9,10)           44.9446         estimate D2E/DX2                !
 ! D64   D(32,8,9,34)          165.4753         estimate D2E/DX2                !
 ! D65   D(33,8,9,10)          165.3192         estimate D2E/DX2                !
 ! D66   D(33,8,9,34)          -74.1501         estimate D2E/DX2                !
 ! D67   D(8,9,10,5)            34.1683         estimate D2E/DX2                !
 ! D68   D(8,9,10,35)          -84.9913         estimate D2E/DX2                !
 ! D69   D(8,9,10,36)          155.3442         estimate D2E/DX2                !
 ! D70   D(34,9,10,5)          -82.6919         estimate D2E/DX2                !
 ! D71   D(34,9,10,35)         158.1485         estimate D2E/DX2                !
 ! D72   D(34,9,10,36)          38.484          estimate D2E/DX2                !
 ! D73   D(2,11,12,13)        -179.8904         estimate D2E/DX2                !
 ! D74   D(2,11,12,37)           0.0438         estimate D2E/DX2                !
 ! D75   D(22,11,12,13)          0.1346         estimate D2E/DX2                !
 ! D76   D(22,11,12,37)       -179.9312         estimate D2E/DX2                !
 ! D77   D(2,11,22,15)         179.9148         estimate D2E/DX2                !
 ! D78   D(2,11,22,45)          -0.0338         estimate D2E/DX2                !
 ! D79   D(12,11,22,15)         -0.1103         estimate D2E/DX2                !
 ! D80   D(12,11,22,45)        179.9411         estimate D2E/DX2                !
 ! D81   D(11,12,13,14)         -0.1346         estimate D2E/DX2                !
 ! D82   D(11,12,13,38)        179.9784         estimate D2E/DX2                !
 ! D83   D(37,12,13,14)        179.9312         estimate D2E/DX2                !
 ! D84   D(37,12,13,38)          0.0442         estimate D2E/DX2                !
 ! D85   D(12,13,14,15)          0.1102         estimate D2E/DX2                !
 ! D86   D(12,13,14,39)        179.9693         estimate D2E/DX2                !
 ! D87   D(38,13,14,15)        179.9972         estimate D2E/DX2                !
 ! D88   D(38,13,14,39)         -0.1437         estimate D2E/DX2                !
 ! D89   D(13,14,15,16)        179.9717         estimate D2E/DX2                !
 ! D90   D(13,14,15,22)         -0.0858         estimate D2E/DX2                !
 ! D91   D(39,14,15,16)          0.1124         estimate D2E/DX2                !
 ! D92   D(39,14,15,22)       -179.945          estimate D2E/DX2                !
 ! D93   D(14,15,16,17)        180.0            estimate D2E/DX2                !
 ! D94   D(14,15,16,21)         -0.0534         estimate D2E/DX2                !
 ! D95   D(22,15,16,17)          0.0575         estimate D2E/DX2                !
 ! D96   D(22,15,16,21)       -179.9959         estimate D2E/DX2                !
 ! D97   D(14,15,22,11)          0.0858         estimate D2E/DX2                !
 ! D98   D(14,15,22,45)       -179.9655         estimate D2E/DX2                !
 ! D99   D(16,15,22,11)       -179.9717         estimate D2E/DX2                !
 ! D100  D(16,15,22,45)         -0.023          estimate D2E/DX2                !
 ! D101  D(15,16,17,18)        179.9996         estimate D2E/DX2                !
 ! D102  D(15,16,17,40)         -0.0697         estimate D2E/DX2                !
 ! D103  D(21,16,17,18)          0.0531         estimate D2E/DX2                !
 ! D104  D(21,16,17,40)        179.9838         estimate D2E/DX2                !
 ! D105  D(15,16,21,20)       -179.9468         estimate D2E/DX2                !
 ! D106  D(15,16,21,44)          0.0189         estimate D2E/DX2                !
 ! D107  D(17,16,21,20)         -0.0002         estimate D2E/DX2                !
 ! D108  D(17,16,21,44)        179.9655         estimate D2E/DX2                !
 ! D109  D(16,17,18,19)         -0.053          estimate D2E/DX2                !
 ! D110  D(16,17,18,41)        179.9655         estimate D2E/DX2                !
 ! D111  D(40,17,18,19)       -179.9838         estimate D2E/DX2                !
 ! D112  D(40,17,18,41)          0.0348         estimate D2E/DX2                !
 ! D113  D(17,18,19,20)          0.0001         estimate D2E/DX2                !
 ! D114  D(17,18,19,42)       -179.9652         estimate D2E/DX2                !
 ! D115  D(41,18,19,20)        179.9816         estimate D2E/DX2                !
 ! D116  D(41,18,19,42)          0.0162         estimate D2E/DX2                !
 ! D117  D(18,19,20,21)          0.0528         estimate D2E/DX2                !
 ! D118  D(18,19,20,43)        179.9843         estimate D2E/DX2                !
 ! D119  D(42,19,20,21)       -179.9819         estimate D2E/DX2                !
 ! D120  D(42,19,20,43)         -0.0504         estimate D2E/DX2                !
 ! D121  D(19,20,21,16)         -0.0528         estimate D2E/DX2                !
 ! D122  D(19,20,21,44)        179.9815         estimate D2E/DX2                !
 ! D123  D(43,20,21,16)       -179.9842         estimate D2E/DX2                !
 ! D124  D(43,20,21,44)          0.0501         estimate D2E/DX2                !
 --------------------------------------------------------------------------------
 Trust Radius=3.00D-01 FncErr=1.00D-07 GrdErr=1.00D-06
 Number of steps in this run= 264 maximum allowed number of steps= 270.
 GradGradGradGradGradGradGradGradGradGradGradGradGradGradGradGradGradGrad

                          Input orientation:                          
 ---------------------------------------------------------------------
 Center     Atomic      Atomic             Coordinates (Angstroms)
 Number     Number       Type             X           Y           Z
 ---------------------------------------------------------------------
      1          8           0       -3.675000   -1.584000    0.721000
      2          6           0       -2.858000   -0.500000    1.167000
      3          6           0       -1.587000   -1.057000    1.835000
      4          8           0       -0.769000    0.028000    2.282000
      5          6           0        0.410000   -0.489000    2.905000
      6          6           0        1.341000    0.567000    3.386000
      7          6           0        2.372000   -0.176000    4.279000
      8          6           0        2.629000   -1.604000    3.704000
      9          7           0        2.648000   -1.492000    2.283000
     10          6           0        1.223000   -1.314000    1.849000
     11          6           0       -2.464000    0.376000   -0.037000
     12          6           0       -3.276000    1.453000   -0.415000
     13          6           0       -2.919000    2.249000   -1.512000
     14          6           0       -1.748000    1.969000   -2.229000
     15          6           0       -0.935000    0.892000   -1.851000
     16          6           0        0.351000    0.584000   -2.639000
     17          6           0        1.164000   -0.493000   -2.261000
     18          6           0        2.335000   -0.773000   -2.979000
     19          6           0        2.692000    0.024000   -4.076000
     20          6           0        1.878000    1.100000   -4.454000
     21          6           0        0.708000    1.381000   -3.736000
     22          6           0       -1.293000    0.096000   -0.754000
     23          1           0       -3.921000   -2.130000    1.471000
     24          1           0       -3.402000    0.090000    1.874000
     25          1           0       -1.861000   -1.665000    2.672000
     26          1           0       -1.042000   -1.647000    1.129000
     27          1           0        0.125000   -1.081000    3.750000
     28          1           0        0.874000    1.340000    3.959000
     29          1           0        1.795000    1.003000    2.520000
     30          1           0        2.010000   -0.318000    5.276000
     31          1           0        3.256000    0.426000    4.300000
     32          1           0        1.832000   -2.273000    3.955000
     33          1           0        3.546000   -1.980000    4.107000
     34          1           0        3.218000   -0.700000    2.061000
     35          1           0        0.724000   -2.254000    1.739000
     36          1           0        1.256000   -0.810000    0.906000
     37          1           0       -4.170000    1.668000    0.133000
     38          1           0       -3.540000    3.072000   -1.801000
     39          1           0       -1.475000    2.576000   -3.067000
     40          1           0        0.892000   -1.101000   -1.424000
     41          1           0        2.956000   -1.595000   -2.690000
     42          1           0        3.585000   -0.190000   -4.624000
     43          1           0        2.151000    1.708000   -5.291000
     44          1           0        0.087000    2.203000   -4.025000
     45          1           0       -0.672000   -0.726000   -0.465000
 ---------------------------------------------------------------------
                    Distance matrix (angstroms):
                    1          2          3          4          5
     1  O    0.000000
     2  C    1.428797   0.000000
     3  C    2.424555   1.540102   0.000000
     4  O    3.671526   2.426094   1.430440   0.000000
     5  C    4.759843   3.701431   2.335708   1.430195   0.000000
     6  C    6.073655   4.867654   3.690008   2.441605   1.487702
     7  C    7.155979   6.094458   4.735291   3.727668   2.415634
     8  C    6.974174   6.145108   4.644031   4.028885   2.608752
     9  N    6.513727   5.704871   4.280789   3.739825   2.530126
    10  C    5.033457   4.216904   2.821763   2.440598   1.567396
    11  C    2.425425   1.540204   2.515353   2.893422   4.202793
    12  C    3.266966   2.547873   3.770321   3.948352   5.327322
    13  C    4.499968   3.838979   4.889404   4.893851   6.171610
    14  C    5.003962   4.342911   5.069388   5.007499   6.087420
    15  C    4.500373   3.839781   4.220225   4.225605   5.131834
    16  C    5.674372   5.094936   5.144453   5.077379   5.647189
    17  C    5.787791   5.284668   4.966217   4.964552   5.220736
    18  C    7.104071   6.650646   6.215894   6.160725   6.197398
    19  C    8.132377   7.652851   7.376878   7.238971   7.362408
    20  C    8.051105   7.522323   7.497359   7.316385   7.670386
    21  C    6.918581   6.347750   6.499762   6.342591   6.905692
    22  C    3.266795   2.548467   2.849345   3.081639   4.078077
    23  H    0.959756   1.969590   2.594491   3.905098   4.848381
    24  H    2.050906   1.069526   2.147407   2.665145   3.991184
    25  H    2.665250   2.148548   1.070191   2.052027   2.568016
    26  H    2.665168   2.148234   1.069374   2.051722   2.569717
    27  H    4.885473   3.988451   2.568802   2.045517   1.070380
    28  H    6.303001   5.010857   4.038998   2.689446   2.161354
    29  H    6.312675   5.073463   4.018799   2.753428   2.071838
    30  H    7.393917   6.372945   5.032396   4.099584   2.865464
    31  H    8.055315   6.932111   5.632953   4.520105   3.298934
    32  H    6.423436   5.736948   4.202692   3.854702   2.511422
    33  H    7.985277   7.200362   5.688726   5.097246   3.674559
    34  H    7.077465   6.144673   4.823541   4.058940   2.939680
    35  H    4.564693   4.029196   2.604371   2.780543   2.138546
    36  H    4.994803   4.133911   3.001116   2.587710   2.194256
    37  H    3.341597   2.736919   4.122417   4.344491   5.771744
    38  H    5.296890   4.693968   5.838094   5.797867   7.101384
    39  H    6.041071   5.413060   6.102527   5.966786   6.972247
    40  H    5.068708   4.597497   4.094931   4.215210   4.398535
    41  H    7.456890   7.062441   6.434588   6.421101   6.245749
    42  H    9.122492   8.668566   8.319853   8.166865   8.176544
    43  H    8.995759   8.465879   8.508686   8.288494   8.662119
    44  H    7.142726   6.552564   6.911547   6.726188   7.441511
    45  H    3.340774   2.737352   2.497356   2.850252   3.547364
                    6          7          8          9         10
     6  C    0.000000
     7  C    1.553209   0.000000
     8  C    2.544270   1.560724   0.000000
     9  N    2.676628   2.406667   1.425534   0.000000
    10  C    2.431965   2.918929   2.345626   1.500222   0.000000
    11  C    5.121663   6.505341   6.622245   5.916449   4.472926
    12  C    6.045601   7.522445   7.821792   7.144649   5.746563
    13  C    6.705753   8.210419   8.534200   7.706400   6.414628
    14  C    6.560164   7.995592   8.192982   7.187592   6.019553
    15  C    5.719438   7.046543   7.056213   5.967521   4.818029
    16  C    6.105818   7.247121   7.085921   5.814815   4.950246
    17  C    5.748351   6.658179   6.241936   4.883461   4.191613
    18  C    6.580035   7.282605   6.740882   5.320110   4.983855
    19  C    7.602729   8.363518   7.948758   6.537360   6.249306
    20  C    7.876424   8.839542   8.627200   7.259376   6.781167
    21  C    7.196261   8.332669   8.243426   6.945941   6.222578
    22  C    4.929442   6.231958   6.176233   5.222700   3.885095
    23  H    6.215278   7.162739   6.940134   6.649673   5.222018
    24  H    5.000972   6.260500   6.526216   6.266778   4.833473
    25  H    3.967924   4.766326   4.607477   4.529054   3.211166
    26  H    3.959108   4.872549   4.484274   3.869346   2.399899
    27  H    2.080158   2.479491   2.558449   2.947294   2.207644
    28  H    1.069555   2.155147   3.436886   3.738486   3.408463
    29  H    1.070592   2.194778   2.982258   2.647414   2.479095
    30  H    2.191549   1.070148   2.123238   3.277708   3.654547
    31  H    2.126618   1.069720   2.206637   2.848978   3.628786
    32  H    2.937761   2.189517   1.070407   2.017771   2.392864
    33  H    3.445152   2.159230   1.069894   2.090819   3.307333
    34  H    2.623746   2.431011   1.965601   1.000724   2.098086
    35  H    3.324355   3.672273   2.812961   2.139709   1.069907
    36  H    2.837914   3.608953   3.216266   2.073383   1.069745
    37  H    6.493484   7.961621   8.347720   7.816215   6.396986
    38  H    7.550110   9.081170   9.498766   8.706348   7.432743
    39  H    7.321690   8.737084   8.953304   7.884812   6.824834
    40  H    5.110766   5.964079   5.437514   4.120469   3.296583
    41  H    6.648326   7.135936   6.402363   4.983593   4.866700
    42  H    8.352765   8.985264   8.501113   7.090827   6.981558
    43  H    8.789102   9.756188   9.597284   8.237262   7.808538
    44  H    7.692329   8.935171   8.982898   7.746135   6.940004
    45  H    4.533676   5.663389   5.389624   4.377289   3.048174
                   11         12         13         14         15
    11  C    0.000000
    12  C    1.400770   0.000000
    13  C    2.427093   1.401597   0.000000
    14  C    2.802707   2.427269   1.401332   0.000000
    15  C    2.427899   2.803052   2.427473   1.401350   0.000000
    16  C    3.838996   4.342403   3.838653   2.547965   1.539352
    17  C    4.343239   5.187315   4.974983   3.813425   2.547965
    18  C    5.745082   6.558391   6.236112   4.975133   3.838946
    19  C    6.559098   7.145767   6.558052   5.187295   4.342716
    20  C    6.235947   6.557579   5.743411   4.342080   3.838208
    21  C    4.975360   5.187146   4.342203   2.940872   2.547900
    22  C    1.401332   2.426656   2.802472   2.427093   1.401852
    23  H    3.267560   4.100111   5.392396   5.934116   5.392992
    24  H    2.147920   2.667052   4.044696   4.806346   4.539264
    25  H    3.444992   4.610175   5.826201   6.102338   5.277618
    26  H    2.733893   4.121249   5.067231   4.984983   3.916423
    27  H    4.813225   5.944340   6.931340   6.968434   6.032208
    28  H    5.295239   6.030518   6.719001   6.749953   6.101581
    29  H    5.007041   5.876374   6.327032   6.003250   5.154693
    30  H    6.980421   7.966537   8.772769   8.699308   7.805847
    31  H    7.178473   8.121144   8.673713   8.369510   7.457643
    32  H    6.434973   7.685808   8.538652   8.309803   7.168204
    33  H    7.670956   8.875452   9.552687   9.152373   7.989087
    34  H    6.151789   7.275852   7.689324   7.084407   5.923311
    35  H    4.498269   5.863580   6.642097   6.299963   5.053484
    36  H    4.016746   5.235001   5.712690   5.155103   3.911308
    37  H    2.146765   1.070404   2.146762   3.396429   3.873455
    38  H    3.396747   2.147523   1.070743   2.147337   3.397194
    39  H    3.872857   3.396739   2.147112   1.070150   2.146185
    40  H    3.920208   4.991315   5.074836   4.128259   2.737208
    41  H    6.348201   7.300942   7.118964   5.919648   4.693503
    42  H    7.612577   8.215135   7.611523   6.232030   5.412084
    43  H    7.118776   7.300187   6.346528   4.964491   4.692851
    44  H    5.074414   4.990428   3.918331   2.578293   2.736692
    45  H    2.146824   3.395785   3.872447   3.395953   2.146646
                   16         17         18         19         20
    16  C    0.000000
    17  C    1.401350   0.000000
    18  C    2.427613   1.401843   0.000000
    19  C    2.803364   2.428229   1.402165   0.000000
    20  C    2.427387   2.802979   2.427468   1.401162   0.000000
    21  C    1.402165   2.428052   2.803550   2.427613   1.401208
    22  C    2.548353   2.941907   4.343751   5.188554   4.975265
    23  H    6.519807   6.516504   7.796248   8.896106   8.897580
    24  H    5.890349   6.187606   7.563699   8.517258   8.303137
    25  H    6.177189   5.904126   7.094778   8.313726   8.509126
    26  H    4.595175   4.205978   5.389218   6.620198   6.873303
    27  H    6.606256   6.128408   7.089316   8.310042   8.668067
    28  H    6.661732   6.490947   7.398320   8.342554   8.476095
    29  H    5.373637   5.049172   5.803859   6.728318   6.975168
    30  H    8.137144   7.586350   8.273915   9.383069   9.833669
    31  H    7.524208   6.947499   7.434358   8.404587   8.887389
    32  H    7.337346   6.500252   7.112198   8.397188   9.060382
    33  H    7.892442   6.959635   7.289360   8.467988   9.249829
    34  H    5.653171   4.789723   5.117286   6.201905   6.890633
    35  H    5.230703   4.392576   5.200789   6.548017   7.136826
    36  H    3.915263   3.184155   4.032225   5.251474   5.724036
    37  H    5.412807   6.233194   7.613018   8.216171   7.611931
    38  H    4.693854   5.920172   7.119504   7.300942   6.346804
    39  H    2.735969   4.127071   5.073425   4.989456   3.917264
    40  H    2.146656   1.069681   2.146592   3.396870   3.872660
    41  H    3.396567   2.147023   1.069975   2.147523   3.396587
    42  H    3.872732   3.396589   2.146722   1.069369   2.146357
    43  H    3.396539   3.872915   3.396257   2.145871   1.069936
    44  H    2.147523   3.397064   3.873525   3.396567   2.146702
    45  H    2.736586   2.578915   3.919752   4.991825   5.074337
                   21         22         23         24         25
    21  C    0.000000
    22  C    3.814125   0.000000
    23  H    7.801770   4.100254   0.000000
    24  H    7.073251   3.369614   2.315204   0.000000
    25  H    7.545882   3.893741   2.429450   2.468098   0.000000
    26  H    5.991620   2.578127   2.939200   3.023540   1.746979
    27  H    7.901995   4.866423   4.760710   4.162973   2.333953
    28  H    7.696900   5.334397   6.420519   4.918730   4.262232
    29  H    6.360974   4.591020   6.602177   5.315985   4.528539
    30  H    9.262718   6.887823   7.275859   6.405452   4.855910
    31  H    8.484199   6.807732   8.126851   7.094176   5.762495
    32  H    8.588747   6.128007   6.267991   6.108116   3.956514
    33  H    8.992398   7.166242   7.920043   7.585901   5.603044
    34  H    6.651005   5.376520   7.304678   6.669593   5.205842
    35  H    6.571842   3.975656   4.654377   4.747256   2.810629
    36  H    5.162262   3.173931   5.372425   4.841899   3.683133
    37  H    6.232689   3.396334   4.034482   2.472041   4.784025
    38  H    4.964797   3.873215   6.157268   4.734659   6.727997
    39  H    2.577028   3.396100   6.980172   5.857218   7.146412
    40  H    3.396987   2.579910   5.710064   5.543800   4.967325
    41  H    3.873525   4.966042   8.055636   8.005841   7.208289
    42  H    3.396132   6.233264   9.861676   9.545710   9.223132
    43  H    2.146440   5.919801   9.865296   9.208201   9.533239
    44  H    1.069975   4.128352   8.065046   7.171896   7.975333
    45  H    4.128352   1.069975   4.034267   3.686418   3.483707
                   26         27         28         29         30
    26  H    0.000000
    27  H    2.924361   0.000000
    28  H    4.538956   2.542818   0.000000
    29  H    4.123827   2.940214   1.741416   0.000000
    30  H    5.317758   2.542454   2.402904   3.063789   0.000000
    31  H    5.729343   3.518055   2.574024   2.373995   1.748893
    32  H    4.078974   2.092065   3.737854   3.576698   2.366168
    33  H    5.479883   3.555122   4.264257   3.805635   2.547175
    34  H    4.462402   3.544648   3.641200   2.266235   3.455635
    35  H    1.964511   2.403924   4.227024   3.516397   4.232288
    36  H    2.455830   3.072611   3.753563   2.486461   4.461780
    37  H    4.665364   6.251937   6.339385   6.459196   8.281730
    38  H    6.090473   7.841762   7.460618   7.170358   9.611375
    39  H    5.968889   7.899692   7.510671   6.661967   9.493477
    40  H    3.249043   5.230580   5.910626   4.560412   6.837617
    41  H    5.529147   7.053535   7.560301   5.936466   8.122980
    42  H    7.525223   9.104359   9.130077   7.460837  10.025318
    43  H    7.916292   9.675892   9.344980   7.850827  10.760392
    44  H    6.531528   8.440185   8.068977   6.869810   9.826595
    45  H    1.877759   4.304353   5.121547   4.240962   6.349698
                   31         32         33         34         35
    31  H    0.000000
    32  H    3.071059   0.000000
    33  H    2.431087   1.745494   0.000000
    34  H    2.506480   2.825343   2.435590   0.000000
    35  H    4.489114   2.477636   3.694074   2.956118   0.000000
    36  H    4.128793   3.430531   4.106020   2.279379   1.749871
    37  H    8.605343   8.134075   9.414735   7.994195   6.473991
    38  H    9.508372   9.516246  10.518487   8.649485   7.686324
    39  H    9.015406   9.151914   9.870859   7.684583   7.159758
    40  H    6.378432   5.584875   6.197444   4.209074   3.370787
    41  H    7.282482   6.773410   6.833413   4.841660   5.003214
    42  H    8.951283   9.000619   8.912687   6.714463   7.275520
    43  H    9.739190  10.071675  10.191652   7.809536   8.194795
    44  H    9.083277   9.314505   9.777095   7.434377   7.313981
    45  H    6.281840   5.310332   6.345646   4.638260   3.023444
                   36         37         38         39         40
    36  H    0.000000
    37  H    6.014939   0.000000
    38  H    6.737907   2.471532   0.000000
    39  H    5.891357   4.281062   2.472448   0.000000
    40  H    2.376148   5.976241   6.099072   4.671452   0.000000
    41  H    4.054311   8.330449   8.047933   6.096977   2.471212
    42  H    6.032374   9.285539   8.329202   5.973157   4.280440
    43  H    6.748641   8.329251   6.813815   4.341368   4.942596
    44  H    5.895718   5.974717   4.342403   1.869956   4.281313
    45  H    2.367252   4.280753   4.943190   4.280002   1.872539
                   41         42         43         44         45
    41  H    0.000000
    42  H    2.471846   0.000000
    43  H    4.280541   2.470556   0.000000
    44  H    4.943500   4.280333   2.471412   0.000000
    45  H    4.343751   5.975502   6.097865   4.672122   0.000000
 Symmetry turned off by external request.
 Stoichiometry    C19H23NO2
 Framework group  C1[X(C19H23NO2)]
 Deg. of freedom   129
 Full point group                 C1      NOp   1
 Rotational constants (GHZ):      0.3084035      0.2029757      0.1392482
 Standard basis: 6-311G (5D, 7F)
 Integral buffers will be    131072 words long.
 Raffenetti 2 integral format.
 Two-electron integral symmetry is turned off.
   355 basis functions,   687 primitive gaussians,   355 cartesian basis functions
    80 alpha electrons       80 beta electrons
       nuclear repulsion energy      1769.9822971230 Hartrees.
 NAtoms=   45 NActive=   45 NUniq=   45 SFac= 7.50D-01 NAtFMM=   80 NAOKFM=F Big=F
 One-electron integrals computed using PRISM.
 NBasis=   355 RedAO= T  NBF=   355
 NBsUse=   355 1.00D-06 NBFU=   355
 Harris functional with IExCor=  402 diagonalized for initial guess.
 ExpMin= 1.03D-01 ExpMax= 8.59D+03 ExpMxC= 1.30D+03 IAcc=1 IRadAn=         1 AccDes= 0.00D+00
 HarFok:  IExCor=  402 AccDes= 0.00D+00 IRadAn=         1 IDoV= 1
 ScaDFX=  1.000000  1.000000  1.000000  1.000000
 FoFCou: FMM=F IPFlag=           0 FMFlag=      100000 FMFlg1=           0
         NFxFlg=           0 DoJE=T BraDBF=F KetDBF=T FulRan=T
         Omega=  0.000000  0.000000  1.000000  0.000000  0.000000 ICntrl=     500 IOpCl=  0
         NMat0=    1 NMatS0=    1 NMatT0=    0 NMatD0=    1 NMtDS0=    0 NMtDT0=    0
         I1Cent=           4 NGrid=           0.
 Symmetry not used in FoFCou.
 Requested convergence on RMS density matrix=1.00D-08 within 128 cycles.
 Requested convergence on MAX density matrix=1.00D-06.
 Requested convergence on             energy=1.00D-06.
 No special actions if energy rises.
 Integral accuracy reduced to 1.0D-05 until final iterations.
 Initial convergence to 1.0D-05 achieved.  Increase integral accuracy.
 SCF Done:  E(RB3LYP) =  -942.969696830     A.U. after   14 cycles
             Convg  =    0.8612D-08             -V/T =  2.0025

 **********************************************************************

            Population analysis using the SCF density.

 **********************************************************************

 Alpha  occ. eigenvalues --  -19.12829 -19.12298 -14.29726 -10.23654 -10.22507
 Alpha  occ. eigenvalues --  -10.22230 -10.19807 -10.19374 -10.19202 -10.19136
 Alpha  occ. eigenvalues --  -10.18731 -10.17931 -10.17925 -10.17778 -10.17737
 Alpha  occ. eigenvalues --  -10.17715 -10.17668 -10.17547 -10.17543 -10.17460
 Alpha  occ. eigenvalues --  -10.17067 -10.16736  -1.05447  -1.03993  -0.93806
 Alpha  occ. eigenvalues --   -0.87430  -0.85512  -0.80790  -0.78629  -0.77298
 Alpha  occ. eigenvalues --   -0.75792  -0.75240  -0.73065  -0.72243  -0.66991
 Alpha  occ. eigenvalues --   -0.65831  -0.63256  -0.62810  -0.61874  -0.59188
 Alpha  occ. eigenvalues --   -0.57624  -0.57354  -0.54739  -0.53883  -0.52221
 Alpha  occ. eigenvalues --   -0.50829  -0.50375  -0.48859  -0.48156  -0.47381
 Alpha  occ. eigenvalues --   -0.47033  -0.46710  -0.44830  -0.44382  -0.43630
 Alpha  occ. eigenvalues --   -0.42722  -0.42549  -0.41770  -0.41102  -0.40237
 Alpha  occ. eigenvalues --   -0.39261  -0.39038  -0.38665  -0.37157  -0.36883
 Alpha  occ. eigenvalues --   -0.36548  -0.35847  -0.35186  -0.34964  -0.34375
 Alpha  occ. eigenvalues --   -0.33825  -0.32109  -0.31632  -0.28478  -0.27953
 Alpha  occ. eigenvalues --   -0.27583  -0.25863  -0.25000  -0.22529  -0.21215
 Alpha virt. eigenvalues --   -0.03515  -0.02164  -0.00035   0.02299   0.03172
 Alpha virt. eigenvalues --    0.03670   0.04409   0.04658   0.05666   0.06569
 Alpha virt. eigenvalues --    0.07099   0.07893   0.08049   0.09124   0.09617
 Alpha virt. eigenvalues --    0.09841   0.11152   0.11499   0.11973   0.12300
 Alpha virt. eigenvalues --    0.12546   0.13420   0.13978   0.14720   0.15080
 Alpha virt. eigenvalues --    0.16773   0.17846   0.18490   0.18737   0.19269
 Alpha virt. eigenvalues --    0.19731   0.20761   0.20920   0.22036   0.22827
 Alpha virt. eigenvalues --    0.23264   0.23958   0.24843   0.25588   0.25693
 Alpha virt. eigenvalues --    0.26785   0.27707   0.28652   0.28874   0.29888
 Alpha virt. eigenvalues --    0.31165   0.31957   0.32943   0.33847   0.34363
 Alpha virt. eigenvalues --    0.35188   0.36009   0.36657   0.37717   0.37995
 Alpha virt. eigenvalues --    0.38774   0.39208   0.39356   0.39668   0.40180
 Alpha virt. eigenvalues --    0.40556   0.40837   0.41708   0.42391   0.43219
 Alpha virt. eigenvalues --    0.43425   0.43721   0.44504   0.44731   0.45321
 Alpha virt. eigenvalues --    0.46173   0.46476   0.47028   0.47215   0.47881
 Alpha virt. eigenvalues --    0.48767   0.49203   0.50558   0.50614   0.51109
 Alpha virt. eigenvalues --    0.51403   0.51941   0.52798   0.53483   0.53818
 Alpha virt. eigenvalues --    0.54779   0.55117   0.55380   0.55526   0.56882
 Alpha virt. eigenvalues --    0.57461   0.58290   0.58644   0.59151   0.59902
 Alpha virt. eigenvalues --    0.60195   0.60761   0.61193   0.61724   0.61760
 Alpha virt. eigenvalues --    0.62513   0.62697   0.63102   0.63524   0.64075
 Alpha virt. eigenvalues --    0.64413   0.64917   0.65531   0.65754   0.66274
 Alpha virt. eigenvalues --    0.66608   0.67295   0.67943   0.70477   0.70612
 Alpha virt. eigenvalues --    0.72154   0.73831   0.74114   0.75089   0.75372
 Alpha virt. eigenvalues --    0.76480   0.77068   0.77452   0.79621   0.80139
 Alpha virt. eigenvalues --    0.80538   0.80596   0.81867   0.82916   0.84455
 Alpha virt. eigenvalues --    0.86341   0.86477   0.87124   0.88308   0.90072
 Alpha virt. eigenvalues --    0.90716   0.91688   0.92852   0.94219   0.95696
 Alpha virt. eigenvalues --    0.96457   0.97239   0.98096   1.00633   1.02039
 Alpha virt. eigenvalues --    1.03218   1.05012   1.07780   1.08707   1.10178
 Alpha virt. eigenvalues --    1.10931   1.12853   1.14218   1.18414   1.20706
 Alpha virt. eigenvalues --    1.24760   1.25074   1.26427   1.30045   1.31997
 Alpha virt. eigenvalues --    1.39995   1.55777   1.59594   1.72866   2.17325
 Alpha virt. eigenvalues --    2.18188   2.20497   2.21712   2.23346   2.25423
 Alpha virt. eigenvalues --    2.26230   2.26707   2.27554   2.28858   2.29915
 Alpha virt. eigenvalues --    2.30136   2.30877   2.32615   2.33250   2.35644
 Alpha virt. eigenvalues --    2.36404   2.38844   2.40017   2.43893   2.49013
 Alpha virt. eigenvalues --    2.51411   2.52293   2.53103   2.54696   2.57571
 Alpha virt. eigenvalues --    2.59726   2.61082   2.64945   2.65959   2.70652
 Alpha virt. eigenvalues --    2.71809   2.72833   2.73962   2.74630   2.75639
 Alpha virt. eigenvalues --    2.75887   2.76730   2.77704   2.78842   2.82195
 Alpha virt. eigenvalues --    2.83338   2.84679   2.85295   2.85628   2.87247
 Alpha virt. eigenvalues --    2.87672   2.88592   2.90695   2.92337   2.93229
 Alpha virt. eigenvalues --    2.94839   2.96854   2.98613   2.99582   3.00435
 Alpha virt. eigenvalues --    3.05430   3.06029   3.06313   3.10260   3.12216
 Alpha virt. eigenvalues --    3.12583   3.13121   3.14479   3.15781   3.16793
 Alpha virt. eigenvalues --    3.18225   3.19861   3.21636   3.23837   3.24962
 Alpha virt. eigenvalues --    3.26578   3.27298   3.28308   3.29173   3.32023
 Alpha virt. eigenvalues --    3.35107   3.39325   3.41296   3.60007   3.85185
 Alpha virt. eigenvalues --    3.99306   4.05862   4.85282   4.89180   4.91291
 Alpha virt. eigenvalues --    4.99123   5.08031   5.22528  23.10282  23.19252
 Alpha virt. eigenvalues --   23.32600  23.33653  23.35273  23.38472  23.41528
 Alpha virt. eigenvalues --   23.47267  23.49398  23.53552  23.55696  23.58507
 Alpha virt. eigenvalues --   23.60041  23.64833  23.67367  23.69847  23.70342
 Alpha virt. eigenvalues --   23.87403  23.88409  35.47798  49.84013  49.91494
          Condensed to atoms (all electrons):
              1          2          3          4          5          6
     1  O    8.304093   0.198623  -0.056817   0.002027   0.000103   0.000003
     2  C    0.198623   5.585646   0.135749  -0.058273   0.009228  -0.000039
     3  C   -0.056817   0.135749   5.447210   0.158392  -0.076943   0.011356
     4  O    0.002027  -0.058273   0.158392   8.428849   0.158060  -0.038826
     5  C    0.000103   0.009228  -0.076943   0.158060   5.618674   0.086807
     6  C    0.000003  -0.000039   0.011356  -0.038826   0.086807   5.693530
     7  C    0.000000   0.000007  -0.001017   0.004672  -0.043427   0.155292
     8  C    0.000000   0.000000   0.000413  -0.000806  -0.014575  -0.070064
     9  N    0.000000  -0.000013   0.000935   0.004299  -0.081313   0.004627
    10  C    0.000035   0.000994  -0.016020  -0.063859   0.158835  -0.076685
    11  C   -0.098837   0.032845  -0.031313   0.010660  -0.001080   0.000042
    12  C    0.007373  -0.043339   0.013048  -0.000888  -0.000066   0.000004
    13  C   -0.000164   0.006184  -0.000976  -0.000027   0.000003   0.000000
    14  C    0.000036   0.002395   0.000175   0.000014  -0.000007   0.000000
    15  C   -0.000261   0.012026  -0.000577  -0.003294  -0.000198   0.000045
    16  C   -0.000007  -0.001188   0.000066   0.000127   0.000039  -0.000010
    17  C    0.000005   0.000226  -0.000122  -0.000068   0.000080   0.000004
    18  C    0.000000   0.000002  -0.000004  -0.000001   0.000001   0.000000
    19  C    0.000000   0.000000   0.000000   0.000000   0.000000   0.000000
    20  C    0.000000   0.000000   0.000000   0.000000   0.000000   0.000000
    21  C    0.000000   0.000000  -0.000001   0.000001   0.000000   0.000000
    22  C    0.010631  -0.032687  -0.037853  -0.000601   0.001337   0.000085
    23  H    0.243350  -0.049253   0.001128  -0.000189  -0.000027  -0.000003
    24  H   -0.052286   0.386751  -0.073254   0.011552  -0.000022  -0.000145
    25  H    0.004625  -0.054572   0.358049  -0.046756  -0.005044  -0.000827
    26  H    0.013229  -0.014699   0.309725  -0.061937  -0.019218  -0.000388
    27  H   -0.000031  -0.001558  -0.010961  -0.054490   0.394600  -0.091208
    28  H    0.000001  -0.000078  -0.000303   0.004751  -0.033681   0.386454
    29  H    0.000000  -0.000071  -0.000455   0.006008  -0.082450   0.397013
    30  H    0.000000   0.000001  -0.000001   0.000082  -0.007845  -0.035624
    31  H    0.000000  -0.000001   0.000019  -0.000223   0.010332  -0.055398
    32  H    0.000000   0.000000   0.000173  -0.000113  -0.001673  -0.002917
    33  H    0.000000   0.000000  -0.000004   0.000000  -0.000785   0.008331
    34  H    0.000000   0.000002   0.000000  -0.000128   0.003085  -0.001377
    35  H   -0.000165   0.000058   0.004169   0.006587  -0.077938   0.012664
    36  H    0.000022  -0.001435  -0.001859   0.007960  -0.031679  -0.015647
    37  H    0.000950  -0.007533   0.000757  -0.000013  -0.000002   0.000000
    38  H   -0.000004  -0.000445   0.000006  -0.000001   0.000000   0.000000
    39  H    0.000000   0.000041  -0.000002   0.000001   0.000000   0.000000
    40  H   -0.000042   0.000429   0.000062  -0.000846  -0.000332   0.000123
    41  H    0.000000   0.000000  -0.000001   0.000000   0.000004  -0.000001
    42  H    0.000000   0.000000   0.000000   0.000000   0.000000   0.000000
    43  H    0.000000   0.000000   0.000000   0.000000   0.000000   0.000000
    44  H    0.000000   0.000000   0.000000   0.000000   0.000000   0.000000
    45  H    0.000186  -0.017269   0.006419   0.009385  -0.000267  -0.000046
              7          8          9         10         11         12
     1  O    0.000000   0.000000   0.000000   0.000035  -0.098837   0.007373
     2  C    0.000007   0.000000  -0.000013   0.000994   0.032845  -0.043339
     3  C   -0.001017   0.000413   0.000935  -0.016020  -0.031313   0.013048
     4  O    0.004672  -0.000806   0.004299  -0.063859   0.010660  -0.000888
     5  C   -0.043427  -0.014575  -0.081313   0.158835  -0.001080  -0.000066
     6  C    0.155292  -0.070064   0.004627  -0.076685   0.000042   0.000004
     7  C    5.622475   0.223098  -0.129357  -0.020609   0.000001   0.000000
     8  C    0.223098   5.453355   0.192368  -0.090193  -0.000003   0.000000
     9  N   -0.129357   0.192368   7.028080   0.223851   0.000006   0.000000
    10  C   -0.020609  -0.090193   0.223851   5.527673  -0.001333  -0.000013
    11  C    0.000001  -0.000003   0.000006  -0.001333   5.460264   0.474605
    12  C    0.000000   0.000000   0.000000  -0.000013   0.474605   5.058200
    13  C    0.000000   0.000000   0.000000   0.000000  -0.022976   0.478363
    14  C    0.000000   0.000000   0.000000   0.000007  -0.043531  -0.080634
    15  C   -0.000001   0.000000  -0.000003   0.000703   0.009544  -0.036439
    16  C    0.000000   0.000000   0.000003  -0.000339   0.017532   0.002579
    17  C    0.000000  -0.000002  -0.000005  -0.001380   0.001562  -0.000161
    18  C    0.000000   0.000000  -0.000005  -0.000069  -0.000130  -0.000001
    19  C    0.000000   0.000000   0.000000  -0.000001   0.000004   0.000000
    20  C    0.000000   0.000000   0.000000   0.000001   0.000002   0.000002
    21  C    0.000000   0.000000   0.000000  -0.000004  -0.000645   0.000022
    22  C   -0.000001   0.000004   0.000010  -0.000743   0.338544  -0.121077
    23  H    0.000000   0.000000   0.000000  -0.000015   0.016783   0.000007
    24  H    0.000000   0.000003  -0.000003   0.000293  -0.086028  -0.017880
    25  H    0.000257  -0.000207   0.000138  -0.008111   0.023644  -0.000260
    26  H   -0.000120   0.000231  -0.001016   0.028920  -0.053955  -0.002706
    27  H    0.006773  -0.007425   0.004885  -0.078933   0.000398   0.000006
    28  H   -0.036052   0.008705  -0.000232   0.012095  -0.000020  -0.000005
    29  H   -0.048189  -0.004198   0.013320  -0.015359   0.000074   0.000010
    30  H    0.345505  -0.050037   0.014464  -0.000359   0.000000   0.000000
    31  H    0.392205  -0.039952  -0.000938  -0.001509   0.000000   0.000000
    32  H   -0.064847   0.386980  -0.050263  -0.014627   0.000001   0.000000
    33  H   -0.056800   0.380984  -0.027594   0.009355   0.000000   0.000000
    34  H    0.003716  -0.087980   0.349032  -0.046688   0.000000   0.000000
    35  H   -0.001922  -0.015871  -0.024549   0.369028   0.000987   0.000031
    36  H    0.002084   0.010283  -0.027659   0.349560   0.000740  -0.000005
    37  H    0.000000   0.000000   0.000000  -0.000002  -0.050708   0.385642
    38  H    0.000000   0.000000   0.000000   0.000000   0.009298  -0.046306
    39  H    0.000000   0.000000   0.000000   0.000000  -0.000858   0.007728
    40  H   -0.000009   0.000008   0.000015   0.003004   0.001935  -0.000036
    41  H    0.000000   0.000001   0.000056   0.000022  -0.000001   0.000000
    42  H    0.000000   0.000000   0.000000   0.000000   0.000000   0.000000
    43  H    0.000000   0.000000   0.000000   0.000000   0.000000   0.000000
    44  H    0.000000   0.000000   0.000000   0.000000   0.000027  -0.000008
    45  H    0.000002  -0.000001   0.000020  -0.002751  -0.044277   0.006537
             13         14         15         16         17         18
     1  O   -0.000164   0.000036  -0.000261  -0.000007   0.000005   0.000000
     2  C    0.006184   0.002395   0.012026  -0.001188   0.000226   0.000002
     3  C   -0.000976   0.000175  -0.000577   0.000066  -0.000122  -0.000004
     4  O   -0.000027   0.000014  -0.003294   0.000127  -0.000068  -0.000001
     5  C    0.000003  -0.000007  -0.000198   0.000039   0.000080   0.000001
     6  C    0.000000   0.000000   0.000045  -0.000010   0.000004   0.000000
     7  C    0.000000   0.000000  -0.000001   0.000000   0.000000   0.000000
     8  C    0.000000   0.000000   0.000000   0.000000  -0.000002   0.000000
     9  N    0.000000   0.000000  -0.000003   0.000003  -0.000005  -0.000005
    10  C    0.000000   0.000007   0.000703  -0.000339  -0.001380  -0.000069
    11  C   -0.022976  -0.043531   0.009544   0.017532   0.001562  -0.000130
    12  C    0.478363  -0.080634  -0.036439   0.002579  -0.000161  -0.000001
    13  C    5.049114   0.441596  -0.006909   0.014793  -0.000336   0.000005
    14  C    0.441596   5.098477   0.484046  -0.061085   0.012950  -0.000423
    15  C   -0.006909   0.484046   5.230795   0.219655  -0.055263   0.015981
    16  C    0.014793  -0.061085   0.219655   5.203355   0.472146  -0.013726
    17  C   -0.000336   0.012950  -0.055263   0.472146   5.100764   0.435253
    18  C    0.000005  -0.000423   0.015981  -0.013726   0.435253   5.049061
    19  C    0.000002  -0.000025   0.001774  -0.025175  -0.077799   0.501276
    20  C   -0.000073   0.001283   0.014786  -0.011804  -0.050415  -0.039116
    21  C    0.001106  -0.015342  -0.052764   0.476110  -0.096108  -0.051372
    22  C   -0.050605  -0.116176   0.420696  -0.048559  -0.015954   0.000681
    23  H    0.000015  -0.000001   0.000001   0.000000   0.000000   0.000000
    24  H    0.000604  -0.000032   0.000065  -0.000008   0.000005   0.000000
    25  H    0.000014   0.000002  -0.000360   0.000016  -0.000007   0.000000
    26  H    0.000096   0.000011   0.004999  -0.000617   0.000529   0.000050
    27  H   -0.000001   0.000000  -0.000042   0.000004  -0.000003   0.000000
    28  H    0.000000   0.000000   0.000010  -0.000001   0.000001   0.000000
    29  H   -0.000003   0.000002  -0.000112   0.000035  -0.000046  -0.000010
    30  H    0.000000   0.000000   0.000000   0.000000   0.000000   0.000000
    31  H    0.000000   0.000000   0.000000   0.000000   0.000000   0.000000
    32  H    0.000000   0.000000   0.000000   0.000000   0.000000   0.000000
    33  H    0.000000   0.000000   0.000000   0.000000   0.000000   0.000000
    34  H    0.000000   0.000000  -0.000003  -0.000002   0.000043   0.000037
    35  H   -0.000001   0.000000  -0.000153   0.000035  -0.000150  -0.000019
    36  H   -0.000016  -0.000045  -0.001001   0.001422   0.005058   0.000540
    37  H   -0.047527   0.009966  -0.001833  -0.000043  -0.000003   0.000000
    38  H    0.382750  -0.042003   0.007566  -0.000568   0.000012   0.000000
    39  H   -0.045364   0.371443  -0.045582  -0.016331   0.000048   0.000011
    40  H    0.000046   0.000350  -0.010437  -0.052025   0.371724  -0.040745
    41  H    0.000000   0.000007  -0.000569   0.007422  -0.037630   0.382469
    42  H    0.000000   0.000000  -0.000055  -0.001621   0.010407  -0.049299
    43  H    0.000000   0.000087  -0.000574   0.007232   0.000359   0.007635
    44  H    0.001208   0.003592  -0.014586  -0.047035   0.006861  -0.000246
    45  H   -0.000243   0.006528  -0.047525  -0.016098   0.003693   0.000990
             19         20         21         22         23         24
     1  O    0.000000   0.000000   0.000000   0.010631   0.243350  -0.052286
     2  C    0.000000   0.000000   0.000000  -0.032687  -0.049253   0.386751
     3  C    0.000000   0.000000  -0.000001  -0.037853   0.001128  -0.073254
     4  O    0.000000   0.000000   0.000001  -0.000601  -0.000189   0.011552
     5  C    0.000000   0.000000   0.000000   0.001337  -0.000027  -0.000022
     6  C    0.000000   0.000000   0.000000   0.000085  -0.000003  -0.000145
     7  C    0.000000   0.000000   0.000000  -0.000001   0.000000   0.000000
     8  C    0.000000   0.000000   0.000000   0.000004   0.000000   0.000003
     9  N    0.000000   0.000000   0.000000   0.000010   0.000000  -0.000003
    10  C   -0.000001   0.000001  -0.000004  -0.000743  -0.000015   0.000293
    11  C    0.000004   0.000002  -0.000645   0.338544   0.016783  -0.086028
    12  C    0.000000   0.000002   0.000022  -0.121077   0.000007  -0.017880
    13  C    0.000002  -0.000073   0.001106  -0.050605   0.000015   0.000604
    14  C   -0.000025   0.001283  -0.015342  -0.116176  -0.000001  -0.000032
    15  C    0.001774   0.014786  -0.052764   0.420696   0.000001   0.000065
    16  C   -0.025175  -0.011804   0.476110  -0.048559   0.000000  -0.000008
    17  C   -0.077799  -0.050415  -0.096108  -0.015954   0.000000   0.000005
    18  C    0.501276  -0.039116  -0.051372   0.000681   0.000000   0.000000
    19  C    4.973746   0.502545  -0.077488   0.000016   0.000000   0.000000
    20  C    0.502545   5.035254   0.439942  -0.000515   0.000000   0.000000
    21  C   -0.077488   0.439942   5.091177   0.014709   0.000000   0.000000
    22  C    0.000016  -0.000515   0.014709   5.266062  -0.000489   0.013462
    23  H    0.000000   0.000000   0.000000  -0.000489   0.432733  -0.006005
    24  H    0.000000   0.000000   0.000000   0.013462  -0.006005   0.642752
    25  H    0.000000   0.000000   0.000000  -0.000751   0.007042  -0.015181
    26  H    0.000000   0.000000  -0.000017   0.023229  -0.002390   0.019528
    27  H    0.000000   0.000000   0.000000  -0.000222   0.000038  -0.000315
    28  H    0.000000   0.000000   0.000000   0.000016   0.000000   0.000117
    29  H    0.000000   0.000000   0.000003   0.000087   0.000000  -0.000038
    30  H    0.000000   0.000000   0.000000  -0.000001   0.000000  -0.000002
    31  H    0.000000   0.000000   0.000000   0.000000   0.000000   0.000000
    32  H    0.000000   0.000000   0.000000  -0.000002   0.000000  -0.000002
    33  H    0.000000   0.000000   0.000000   0.000000   0.000000   0.000000
    34  H    0.000001   0.000000   0.000000  -0.000011   0.000000   0.000000
    35  H    0.000001   0.000000   0.000001  -0.000870   0.000023  -0.000281
    36  H   -0.000021  -0.000021  -0.000023   0.000830   0.000005  -0.000038
    37  H    0.000000   0.000000   0.000000   0.009596  -0.000041   0.001491
    38  H    0.000000   0.000000   0.000080   0.000451  -0.000002   0.000015
    39  H    0.000010   0.001187   0.004870   0.009017   0.000000  -0.000002
    40  H    0.006227  -0.000095   0.005542   0.003206  -0.000001   0.000011
    41  H   -0.045244   0.007445   0.000420   0.000096   0.000000   0.000000
    42  H    0.388191  -0.049396   0.010334   0.000000   0.000000   0.000000
    43  H   -0.045591   0.382803  -0.039441   0.000008   0.000000   0.000000
    44  H    0.006481  -0.042738   0.374929   0.000298   0.000000   0.000000
    45  H   -0.000008   0.000028   0.000459   0.342822   0.000082  -0.001122
             25         26         27         28         29         30
     1  O    0.004625   0.013229  -0.000031   0.000001   0.000000   0.000000
     2  C   -0.054572  -0.014699  -0.001558  -0.000078  -0.000071   0.000001
     3  C    0.358049   0.309725  -0.010961  -0.000303  -0.000455  -0.000001
     4  O   -0.046756  -0.061937  -0.054490   0.004751   0.006008   0.000082
     5  C   -0.005044  -0.019218   0.394600  -0.033681  -0.082450  -0.007845
     6  C   -0.000827  -0.000388  -0.091208   0.386454   0.397013  -0.035624
     7  C    0.000257  -0.000120   0.006773  -0.036052  -0.048189   0.345505
     8  C   -0.000207   0.000231  -0.007425   0.008705  -0.004198  -0.050037
     9  N    0.000138  -0.001016   0.004885  -0.000232   0.013320   0.014464
    10  C   -0.008111   0.028920  -0.078933   0.012095  -0.015359  -0.000359
    11  C    0.023644  -0.053955   0.000398  -0.000020   0.000074   0.000000
    12  C   -0.000260  -0.002706   0.000006  -0.000005   0.000010   0.000000
    13  C    0.000014   0.000096  -0.000001   0.000000  -0.000003   0.000000
    14  C    0.000002   0.000011   0.000000   0.000000   0.000002   0.000000
    15  C   -0.000360   0.004999  -0.000042   0.000010  -0.000112   0.000000
    16  C    0.000016  -0.000617   0.000004  -0.000001   0.000035   0.000000
    17  C   -0.000007   0.000529  -0.000003   0.000001  -0.000046   0.000000
    18  C    0.000000   0.000050   0.000000   0.000000  -0.000010   0.000000
    19  C    0.000000   0.000000   0.000000   0.000000   0.000000   0.000000
    20  C    0.000000   0.000000   0.000000   0.000000   0.000000   0.000000
    21  C    0.000000  -0.000017   0.000000   0.000000   0.000003   0.000000
    22  C   -0.000751   0.023229  -0.000222   0.000016   0.000087  -0.000001
    23  H    0.007042  -0.002390   0.000038   0.000000   0.000000   0.000000
    24  H   -0.015181   0.019528  -0.000315   0.000117  -0.000038  -0.000002
    25  H    0.646487  -0.079143   0.018542  -0.000257   0.000279   0.000019
    26  H   -0.079143   0.685087  -0.006519   0.000407  -0.000509  -0.000004
    27  H    0.018542  -0.006519   0.638699  -0.007468   0.013682   0.006473
    28  H   -0.000257   0.000407  -0.007468   0.516516  -0.034308  -0.008477
    29  H    0.000279  -0.000509   0.013682  -0.034308   0.558438   0.008929
    30  H    0.000019  -0.000004   0.006473  -0.008477   0.008929   0.574681
    31  H    0.000008  -0.000009   0.000625  -0.000487  -0.006376  -0.028003
    32  H    0.000231  -0.000050   0.001766  -0.000398   0.000030  -0.002062
    33  H    0.000009   0.000011   0.000156  -0.000229   0.000430   0.004905
    34  H   -0.000026   0.000092  -0.001160  -0.000115  -0.000857   0.000427
    35  H    0.002082  -0.008921  -0.004905  -0.000653   0.001735   0.000608
    36  H    0.001838  -0.006157   0.009351  -0.000430   0.006004  -0.000075
    37  H    0.000061  -0.000140   0.000003  -0.000001   0.000001   0.000000
    38  H   -0.000001   0.000003   0.000000   0.000000   0.000000   0.000000
    39  H    0.000000   0.000001   0.000000   0.000000   0.000000   0.000000
    40  H   -0.000153   0.002386  -0.000087   0.000006  -0.000160  -0.000001
    41  H    0.000000  -0.000006   0.000000   0.000000  -0.000001   0.000000
    42  H    0.000000   0.000000   0.000000   0.000000   0.000000   0.000000
    43  H    0.000000   0.000000   0.000000   0.000000   0.000000   0.000000
    44  H    0.000000   0.000000   0.000000   0.000000   0.000000   0.000000
    45  H    0.002936  -0.016184   0.000614  -0.000052   0.000419   0.000003
             31         32         33         34         35         36
     1  O    0.000000   0.000000   0.000000   0.000000  -0.000165   0.000022
     2  C   -0.000001   0.000000   0.000000   0.000002   0.000058  -0.001435
     3  C    0.000019   0.000173  -0.000004   0.000000   0.004169  -0.001859
     4  O   -0.000223  -0.000113   0.000000  -0.000128   0.006587   0.007960
     5  C    0.010332  -0.001673  -0.000785   0.003085  -0.077938  -0.031679
     6  C   -0.055398  -0.002917   0.008331  -0.001377   0.012664  -0.015647
     7  C    0.392205  -0.064847  -0.056800   0.003716  -0.001922   0.002084
     8  C   -0.039952   0.386980   0.380984  -0.087980  -0.015871   0.010283
     9  N   -0.000938  -0.050263  -0.027594   0.349032  -0.024549  -0.027659
    10  C   -0.001509  -0.014627   0.009355  -0.046688   0.369028   0.349560
    11  C    0.000000   0.000001   0.000000   0.000000   0.000987   0.000740
    12  C    0.000000   0.000000   0.000000   0.000000   0.000031  -0.000005
    13  C    0.000000   0.000000   0.000000   0.000000  -0.000001  -0.000016
    14  C    0.000000   0.000000   0.000000   0.000000   0.000000  -0.000045
    15  C    0.000000   0.000000   0.000000  -0.000003  -0.000153  -0.001001
    16  C    0.000000   0.000000   0.000000  -0.000002   0.000035   0.001422
    17  C    0.000000   0.000000   0.000000   0.000043  -0.000150   0.005058
    18  C    0.000000   0.000000   0.000000   0.000037  -0.000019   0.000540
    19  C    0.000000   0.000000   0.000000   0.000001   0.000001  -0.000021
    20  C    0.000000   0.000000   0.000000   0.000000   0.000000  -0.000021
    21  C    0.000000   0.000000   0.000000   0.000000   0.000001  -0.000023
    22  C    0.000000  -0.000002   0.000000  -0.000011  -0.000870   0.000830
    23  H    0.000000   0.000000   0.000000   0.000000   0.000023   0.000005
    24  H    0.000000  -0.000002   0.000000   0.000000  -0.000281  -0.000038
    25  H    0.000008   0.000231   0.000009  -0.000026   0.002082   0.001838
    26  H   -0.000009  -0.000050   0.000011   0.000092  -0.008921  -0.006157
    27  H    0.000625   0.001766   0.000156  -0.001160  -0.004905   0.009351
    28  H   -0.000487  -0.000398  -0.000229  -0.000115  -0.000653  -0.000430
    29  H   -0.006376   0.000030   0.000430  -0.000857   0.001735   0.006004
    30  H   -0.028003  -0.002062   0.004905   0.000427   0.000608  -0.000075
    31  H    0.544078   0.006929  -0.008017   0.005327   0.000066   0.000279
    32  H    0.006929   0.558331  -0.031116   0.012228   0.007061   0.000722
    33  H   -0.008017  -0.031116   0.544038  -0.006929   0.000067  -0.000550
    34  H    0.005327   0.012228  -0.006929   0.502429   0.006033  -0.008416
    35  H    0.000066   0.007061   0.000067   0.006033   0.562273  -0.034147
    36  H    0.000279   0.000722  -0.000550  -0.008416  -0.034147   0.528330
    37  H    0.000000   0.000000   0.000000   0.000000   0.000001   0.000003
    38  H    0.000000   0.000000   0.000000   0.000000   0.000000   0.000000
    39  H    0.000000   0.000000   0.000000   0.000000   0.000000   0.000001
    40  H   -0.000001  -0.000004   0.000000   0.000034   0.000253  -0.003016
    41  H    0.000000   0.000000   0.000000   0.000000  -0.000018   0.000086
    42  H    0.000000   0.000000   0.000000   0.000000   0.000000  -0.000001
    43  H    0.000000   0.000000   0.000000   0.000000   0.000000   0.000000
    44  H    0.000000   0.000000   0.000000   0.000000   0.000000  -0.000001
    45  H    0.000001   0.000003   0.000001  -0.000050   0.000354   0.003714
             37         38         39         40         41         42
     1  O    0.000950  -0.000004   0.000000  -0.000042   0.000000   0.000000
     2  C   -0.007533  -0.000445   0.000041   0.000429   0.000000   0.000000
     3  C    0.000757   0.000006  -0.000002   0.000062  -0.000001   0.000000
     4  O   -0.000013  -0.000001   0.000001  -0.000846   0.000000   0.000000
     5  C   -0.000002   0.000000   0.000000  -0.000332   0.000004   0.000000
     6  C    0.000000   0.000000   0.000000   0.000123  -0.000001   0.000000
     7  C    0.000000   0.000000   0.000000  -0.000009   0.000000   0.000000
     8  C    0.000000   0.000000   0.000000   0.000008   0.000001   0.000000
     9  N    0.000000   0.000000   0.000000   0.000015   0.000056   0.000000
    10  C   -0.000002   0.000000   0.000000   0.003004   0.000022   0.000000
    11  C   -0.050708   0.009298  -0.000858   0.001935  -0.000001   0.000000
    12  C    0.385642  -0.046306   0.007728  -0.000036   0.000000   0.000000
    13  C   -0.047527   0.382750  -0.045364   0.000046   0.000000   0.000000
    14  C    0.009966  -0.042003   0.371443   0.000350   0.000007   0.000000
    15  C   -0.001833   0.007566  -0.045582  -0.010437  -0.000569  -0.000055
    16  C   -0.000043  -0.000568  -0.016331  -0.052025   0.007422  -0.001621
    17  C   -0.000003   0.000012   0.000048   0.371724  -0.037630   0.010407
    18  C    0.000000   0.000000   0.000011  -0.040745   0.382469  -0.049299
    19  C    0.000000   0.000000   0.000010   0.006227  -0.045244   0.388191
    20  C    0.000000   0.000000   0.001187  -0.000095   0.007445  -0.049396
    21  C    0.000000   0.000080   0.004870   0.005542   0.000420   0.010334
    22  C    0.009596   0.000451   0.009017   0.003206   0.000096   0.000000
    23  H   -0.000041  -0.000002   0.000000  -0.000001   0.000000   0.000000
    24  H    0.001491   0.000015  -0.000002   0.000011   0.000000   0.000000
    25  H    0.000061  -0.000001   0.000000  -0.000153   0.000000   0.000000
    26  H   -0.000140   0.000003   0.000001   0.002386  -0.000006   0.000000
    27  H    0.000003   0.000000   0.000000  -0.000087   0.000000   0.000000
    28  H   -0.000001   0.000000   0.000000   0.000006   0.000000   0.000000
    29  H    0.000001   0.000000   0.000000  -0.000160  -0.000001   0.000000
    30  H    0.000000   0.000000   0.000000  -0.000001   0.000000   0.000000
    31  H    0.000000   0.000000   0.000000  -0.000001   0.000000   0.000000
    32  H    0.000000   0.000000   0.000000  -0.000004   0.000000   0.000000
    33  H    0.000000   0.000000   0.000000   0.000000   0.000000   0.000000
    34  H    0.000000   0.000000   0.000000   0.000034   0.000000   0.000000
    35  H    0.000001   0.000000   0.000000   0.000253  -0.000018   0.000000
    36  H    0.000003   0.000000   0.000001  -0.003016   0.000086  -0.000001
    37  H    0.554374  -0.007313  -0.000254  -0.000005   0.000000   0.000000
    38  H   -0.007313   0.559865  -0.006528   0.000001   0.000000   0.000000
    39  H   -0.000254  -0.006528   0.550021   0.000000   0.000001  -0.000003
    40  H   -0.000005   0.000001   0.000000   0.545124  -0.006217  -0.000298
    41  H    0.000000   0.000000   0.000001  -0.006217   0.548659  -0.007081
    42  H    0.000000   0.000000  -0.000003  -0.000298  -0.007081   0.557339
    43  H    0.000000   0.000000   0.000008   0.000061  -0.000370  -0.007253
    44  H   -0.000003   0.000012   0.006961  -0.000358   0.000058  -0.000295
    45  H   -0.000255   0.000048  -0.000365   0.002365   0.000033  -0.000002
             43         44         45
     1  O    0.000000   0.000000   0.000186
     2  C    0.000000   0.000000  -0.017269
     3  C    0.000000   0.000000   0.006419
     4  O    0.000000   0.000000   0.009385
     5  C    0.000000   0.000000  -0.000267
     6  C    0.000000   0.000000  -0.000046
     7  C    0.000000   0.000000   0.000002
[...]
    27  H    0.000000   0.000000   0.000000  -0.000003   0.000043  -0.000316
    28  H    0.000000   0.000000   0.000000   0.000000  -0.000001   0.000071
    29  H    0.000000   0.000000   0.000000   0.000002   0.000001  -0.000007
    30  H    0.000000   0.000000   0.000000   0.000000   0.000000  -0.000001
    31  H    0.000000   0.000000   0.000000   0.000000   0.000000   0.000000
    32  H    0.000000   0.000000   0.000000   0.000000   0.000000   0.000000
    33  H    0.000000   0.000000   0.000000   0.000000   0.000000   0.000000
    34  H    0.000000   0.000000   0.000000  -0.000037   0.000000  -0.000031
    35  H    0.000000   0.000000   0.000000   0.000002   0.000001  -0.000017
    36  H    0.000000   0.000000   0.000000   0.000152   0.000000  -0.000030
    37  H    0.000000   0.000000  -0.000001   0.009127   0.000023   0.003500
    38  H    0.000000  -0.000001   0.000007   0.000145  -0.000001  -0.000013
    39  H   -0.000006   0.000103   0.005880   0.008439   0.000000   0.000000
    40  H    0.006815  -0.000232   0.007475   0.005870   0.000009  -0.000016
    41  H   -0.046800   0.008045   0.000074   0.000015   0.000000   0.000000
    42  H    0.387174  -0.048347   0.009682   0.000000   0.000000   0.000000
    43  H   -0.046498   0.383459  -0.042735   0.000011   0.000000   0.000000
    44  H    0.006899  -0.039497   0.377261   0.000125   0.000000   0.000000
    45  H   -0.000001  -0.000028   0.000083   0.367874  -0.001451   0.001643
             25         26         27         28         29         30
     1  O    0.006747   0.007573  -0.000019   0.000000   0.000002   0.000000
     2  C   -0.053120  -0.026473  -0.001047  -0.000009  -0.000137   0.000000
     3  C    0.353302   0.329660  -0.003230  -0.000305  -0.000220   0.000020
     4  O   -0.040573  -0.043934  -0.048597   0.005083   0.006206  -0.000046
     5  C   -0.009664  -0.003316   0.353329  -0.041074  -0.054785  -0.006430
     6  C   -0.000260  -0.000607  -0.059016   0.386816   0.379807  -0.050891
     7  C   -0.000051   0.000175  -0.001049  -0.033770  -0.055176   0.384174
     8  C    0.000012  -0.000010   0.000511   0.007222  -0.002691  -0.049567
     9  N   -0.000003  -0.000012   0.009303   0.000174   0.006995   0.000827
    10  C   -0.001529   0.007979  -0.065274   0.009604  -0.004577  -0.000940
    11  C    0.016534  -0.022757  -0.000027  -0.000003  -0.000080   0.000000
    12  C    0.000454   0.001017   0.000098  -0.000002   0.000045   0.000000
    13  C    0.000006   0.000067  -0.000004   0.000000   0.000000   0.000000
    14  C   -0.000001  -0.000006   0.000000   0.000000   0.000001   0.000000
    15  C    0.000036  -0.000349   0.000000   0.000000   0.000000   0.000000
    16  C    0.000001  -0.000035   0.000000   0.000000   0.000000   0.000000
    17  C    0.000000  -0.000003   0.000000   0.000000   0.000000   0.000000
    18  C    0.000000   0.000000   0.000000   0.000000   0.000000   0.000000
    19  C    0.000000   0.000000   0.000000   0.000000   0.000000   0.000000
    20  C    0.000000   0.000000   0.000000   0.000000   0.000000   0.000000
    21  C    0.000000   0.000000   0.000000   0.000000   0.000000   0.000000
    22  C    0.000047   0.003464  -0.000003   0.000000   0.000002   0.000000
    23  H    0.007040  -0.001939   0.000043  -0.000001   0.000001   0.000000
    24  H   -0.011160   0.014070  -0.000316   0.000071  -0.000007  -0.000001
    25  H    0.632286  -0.060418   0.013079  -0.000270   0.000321   0.000008
    26  H   -0.060418   0.619249  -0.003805   0.000116   0.000055  -0.000012
    27  H    0.013079  -0.003805   0.644324  -0.012245   0.011048   0.004203
    28  H   -0.000270   0.000116  -0.012245   0.545568  -0.034505  -0.004911
    29  H    0.000321   0.000055   0.011048  -0.034505   0.544013   0.009049
    30  H    0.000008  -0.000012   0.004203  -0.004911   0.009049   0.578540
    31  H    0.000000   0.000000  -0.000056  -0.003545  -0.004998  -0.038086
    32  H    0.000000   0.000003   0.000359  -0.000344   0.000348  -0.008872
    33  H   -0.000001  -0.000003  -0.000039  -0.000340   0.003912   0.008339
    34  H    0.000057  -0.000230   0.000461  -0.000098   0.000062  -0.000498
    35  H    0.000345  -0.001787   0.006344  -0.000547   0.000334   0.000088
    36  H    0.000354   0.003610   0.002054  -0.000310  -0.000238  -0.000187
    37  H    0.000418   0.000382   0.000230  -0.000025   0.001365   0.000002
    38  H   -0.000002  -0.000002  -0.000001   0.000000  -0.000011   0.000000
    39  H    0.000000   0.000001   0.000000   0.000000   0.000000   0.000000
    40  H    0.000000  -0.000009   0.000000   0.000000   0.000000   0.000000
    41  H    0.000000   0.000000   0.000000   0.000000   0.000000   0.000000
    42  H    0.000000   0.000000   0.000000   0.000000   0.000000   0.000000
    43  H    0.000000   0.000000   0.000000   0.000000   0.000000   0.000000
    44  H    0.000000  -0.000001   0.000000   0.000000   0.000000   0.000000
    45  H   -0.000166   0.001688   0.000001   0.000000   0.000000   0.000000
             31         32         33         34         35         36
     1  O    0.000000   0.000000   0.000000   0.000000   0.000000   0.000031
     2  C    0.000000   0.000000   0.000000  -0.000085  -0.000008  -0.000745
     3  C    0.000014   0.000002   0.000001   0.000152   0.000742   0.002642
     4  O   -0.000230   0.000010   0.000028   0.004253   0.005416  -0.003775
     5  C    0.008995  -0.001794  -0.000314  -0.000814  -0.071314  -0.051670
     6  C   -0.032755   0.009020  -0.002928  -0.000378   0.003500   0.007102
     7  C    0.368784  -0.073273  -0.038447   0.002424  -0.008736  -0.000285
     8  C   -0.032395   0.389198   0.385141  -0.047665  -0.004995   0.007006
     9  N    0.007318  -0.046758  -0.039142   0.337807  -0.044475  -0.025935
    10  C   -0.000854  -0.007942   0.009361  -0.059685   0.357104   0.390660
    11  C    0.000000   0.000000   0.000000   0.000035   0.000011   0.000870
    12  C    0.000000   0.000000  -0.000005   0.001922   0.000024   0.000240
    13  C    0.000000   0.000000  -0.000002   0.000758  -0.000003   0.000028
    14  C    0.000000   0.000000   0.000000   0.000006   0.000000   0.000001
    15  C    0.000000   0.000000   0.000000  -0.000016   0.000000   0.000016
    16  C    0.000000   0.000000   0.000000   0.000000   0.000000   0.000000
    17  C    0.000000   0.000000   0.000000   0.000000   0.000000   0.000000
    18  C    0.000000   0.000000   0.000000   0.000000   0.000000   0.000000
    19  C    0.000000   0.000000   0.000000   0.000000   0.000000   0.000000
    20  C    0.000000   0.000000   0.000000   0.000000   0.000000   0.000000
    21  C    0.000000   0.000000   0.000000   0.000000   0.000000   0.000000
    22  C    0.000000   0.000000   0.000000  -0.000037   0.000002   0.000152
    23  H    0.000000   0.000000   0.000000   0.000000   0.000001   0.000000
    24  H    0.000000   0.000000   0.000000  -0.000031  -0.000017  -0.000030
    25  H    0.000000   0.000000  -0.000001   0.000057   0.000345   0.000354
    26  H    0.000000   0.000003  -0.000003  -0.000230  -0.001787   0.003610
    27  H   -0.000056   0.000359  -0.000039   0.000461   0.006344   0.002054
    28  H   -0.003545  -0.000344  -0.000340  -0.000098  -0.000547  -0.000310
    29  H   -0.004998   0.000348   0.003912   0.000062   0.000334  -0.000238
    30  H   -0.038086  -0.008872   0.008339  -0.000498   0.000088  -0.000187
    31  H    0.554108   0.006277  -0.010690  -0.000137   0.000313   0.000024
    32  H    0.006277   0.583958  -0.042817   0.006887   0.006114  -0.000245
    33  H   -0.010690  -0.042817   0.570874  -0.011566  -0.000363  -0.000436
    34  H   -0.000137   0.006887  -0.011566   0.473831   0.010129  -0.008230
    35  H    0.000313   0.006114  -0.000363   0.010129   0.590401  -0.029854
    36  H    0.000024  -0.000245  -0.000436  -0.008230  -0.029854   0.508955
    37  H    0.000000   0.000003  -0.000016   0.000331   0.000013   0.000049
    38  H    0.000000   0.000000   0.000001   0.000041   0.000000   0.000001
    39  H    0.000000   0.000000   0.000000  -0.000001   0.000000   0.000000
    40  H    0.000000   0.000000   0.000000   0.000000   0.000000   0.000000
    41  H    0.000000   0.000000   0.000000   0.000000   0.000000   0.000000
    42  H    0.000000   0.000000   0.000000   0.000000   0.000000   0.000000
    43  H    0.000000   0.000000   0.000000   0.000000   0.000000   0.000000
    44  H    0.000000   0.000000   0.000000   0.000000   0.000000   0.000000
    45  H    0.000000   0.000000   0.000000  -0.000001   0.000000  -0.000016
             37         38         39         40         41         42
     1  O    0.000096   0.000002   0.000001   0.000089   0.000000   0.000000
     2  C   -0.006760  -0.000544   0.000049   0.000075   0.000000   0.000000
     3  C   -0.003044   0.000019  -0.000002   0.000007   0.000000   0.000000
     4  O    0.012711  -0.000054   0.000000   0.000000   0.000000   0.000000
     5  C   -0.000581   0.000001   0.000000   0.000000   0.000000   0.000000
     6  C   -0.000360   0.000002   0.000000   0.000000   0.000000   0.000000
     7  C   -0.000004   0.000000   0.000000   0.000000   0.000000   0.000000
     8  C    0.000010  -0.000001   0.000000   0.000000   0.000000   0.000000
     9  N    0.000245   0.000009   0.000000   0.000000   0.000000   0.000000
    10  C    0.000086  -0.000003   0.000000   0.000000   0.000000   0.000000
    11  C   -0.045263   0.009228  -0.001209   0.000319  -0.000001   0.000000
    12  C    0.380078  -0.047595   0.008336  -0.000023   0.000000   0.000000
    13  C   -0.046390   0.383840  -0.042087  -0.000025   0.000000   0.000000
    14  C    0.008560  -0.045066   0.380880   0.000155   0.000010   0.000000
    15  C   -0.001138   0.008218  -0.053065  -0.005643  -0.000556  -0.000046
    16  C   -0.000045  -0.000526  -0.005716  -0.048065   0.007544  -0.001364
    17  C    0.000001   0.000009   0.000108   0.377745  -0.042657   0.009662
    18  C    0.000000   0.000000  -0.000038  -0.039848   0.383806  -0.048278
    19  C    0.000000   0.000000  -0.000006   0.006815  -0.046800   0.387174
    20  C    0.000000  -0.000001   0.000103  -0.000232   0.008045  -0.048347
    21  C   -0.000001   0.000007   0.005880   0.007475   0.000074   0.009682
    22  C    0.009127   0.000145   0.008439   0.005870   0.000015   0.000000
    23  H    0.000023  -0.000001   0.000000   0.000009   0.000000   0.000000
    24  H    0.003500  -0.000013   0.000000  -0.000016   0.000000   0.000000
    25  H    0.000418  -0.000002   0.000000   0.000000   0.000000   0.000000
    26  H    0.000382  -0.000002   0.000001  -0.000009   0.000000   0.000000
    27  H    0.000230  -0.000001   0.000000   0.000000   0.000000   0.000000
    28  H   -0.000025   0.000000   0.000000   0.000000   0.000000   0.000000
    29  H    0.001365  -0.000011   0.000000   0.000000   0.000000   0.000000
    30  H    0.000002   0.000000   0.000000   0.000000   0.000000   0.000000
    31  H    0.000000   0.000000   0.000000   0.000000   0.000000   0.000000
    32  H    0.000003   0.000000   0.000000   0.000000   0.000000   0.000000
    33  H   -0.000016   0.000001   0.000000   0.000000   0.000000   0.000000
    34  H    0.000331   0.000041  -0.000001   0.000000   0.000000   0.000000
    35  H    0.000013   0.000000   0.000000   0.000000   0.000000   0.000000
    36  H    0.000049   0.000001   0.000000   0.000000   0.000000   0.000000
    37  H    0.529185  -0.007325  -0.000213  -0.000004   0.000000   0.000000
    38  H   -0.007325   0.565019  -0.007613   0.000001   0.000000   0.000000
    39  H   -0.000213  -0.007613   0.543576   0.000001   0.000001  -0.000002
    40  H   -0.000004   0.000001   0.000001   0.530940  -0.007064  -0.000299
    41  H    0.000000   0.000000   0.000001  -0.007064   0.557971  -0.007360
    42  H    0.000000   0.000000  -0.000002  -0.000299  -0.007360   0.558346
    43  H    0.000000   0.000000   0.000025   0.000060  -0.000384  -0.007358
    44  H   -0.000002   0.000026   0.001452  -0.000404   0.000063  -0.000312
    45  H   -0.000270   0.000050  -0.000258   0.001149   0.000015  -0.000002
             43         44         45
     1  O    0.000000   0.000000   0.027444
     2  C    0.000000   0.000001  -0.008465
     3  C    0.000000   0.000000   0.000591
     4  O    0.000000   0.000000  -0.000038
     5  C    0.000000   0.000000   0.000008
     6  C    0.000000   0.000000   0.000000
     7  C    0.000000   0.000000   0.000000
     8  C    0.000000   0.000000   0.000000
     9  N    0.000000   0.000000   0.000000
    10  C    0.000000   0.000000  -0.000001
    11  C   -0.000001   0.000007  -0.038899
    12  C    0.000000  -0.000029   0.008690
    13  C   -0.000001   0.000148  -0.000555
    14  C    0.000006   0.005626   0.006503
    15  C   -0.000548  -0.004985  -0.052579
    16  C    0.007572  -0.050220  -0.006108
    17  C    0.000039   0.007510   0.005125
    18  C    0.008064  -0.000190   0.000095
    19  C   -0.046498   0.006899  -0.000001
    20  C    0.383459  -0.039497  -0.000028
    21  C   -0.042735   0.377261   0.000083
    22  C    0.000011   0.000125   0.367874
    23  H    0.000000   0.000000  -0.001451
    24  H    0.000000   0.000000   0.001643
    25  H    0.000000   0.000000  -0.000166
    26  H    0.000000  -0.000001   0.001688
    27  H    0.000000   0.000000   0.000001
    28  H    0.000000   0.000000   0.000000
    29  H    0.000000   0.000000   0.000000
    30  H    0.000000   0.000000   0.000000
    31  H    0.000000   0.000000   0.000000
    32  H    0.000000   0.000000   0.000000
    33  H    0.000000   0.000000   0.000000
    34  H    0.000000   0.000000  -0.000001
    35  H    0.000000   0.000000   0.000000
    36  H    0.000000   0.000000  -0.000016
    37  H    0.000000  -0.000002  -0.000270
    38  H    0.000000   0.000026   0.000050
    39  H    0.000025   0.001452  -0.000258
    40  H    0.000060  -0.000404   0.001149
    41  H   -0.000384   0.000063   0.000015
    42  H   -0.007358  -0.000312  -0.000002
    43  H    0.558670  -0.007212   0.000001
    44  H   -0.007212   0.540801  -0.000025
    45  H    0.000001  -0.000025   0.496380
 Mulliken atomic charges:
              1
     1  O   -0.613627
     2  C   -0.031496
     3  C   -0.059311
     4  O   -0.510389
     5  C    0.081755
     6  C   -0.350968
     7  C   -0.408598
     8  C   -0.156937
     9  N   -0.539587
    10  C   -0.235345
    11  C   -0.076329
    12  C   -0.085905
    13  C   -0.184545
    14  C   -0.098823
    15  C   -0.088813
    16  C   -0.092843
    17  C   -0.106581
    18  C   -0.172211
    19  C   -0.128515
    20  C   -0.172404
    21  C   -0.108173
    22  C   -0.062582
    23  H    0.365595
    24  H    0.184350
    25  H    0.146172
    26  H    0.176600
    27  H    0.149341
    28  H    0.177650
    29  H    0.193860
    30  H    0.175191
    31  H    0.177915
    32  H    0.179867
    33  H    0.169452
    34  H    0.290317
    35  H    0.181219
    36  H    0.198159
    37  H    0.165027
    38  H    0.142138
    39  H    0.161357
    40  H    0.170920
    41  H    0.147279
    42  H    0.148505
    43  H    0.146830
    44  H    0.162960
    45  H    0.191521
 Sum of Mulliken atomic charges =   0.00000
 Mulliken charges with hydrogens summed into heavy atoms:
              1
     1  O   -0.248032
     2  C    0.152854
     3  C    0.263461
     4  O   -0.510389
     5  C    0.231097
     6  C    0.020542
     7  C   -0.055491
     8  C    0.192382
     9  N   -0.249270
    10  C    0.144032
    11  C   -0.076329
    12  C    0.079123
    13  C   -0.042407
    14  C    0.062535
    15  C   -0.088813
    16  C   -0.092843
    17  C    0.064339
    18  C   -0.024932
    19  C    0.019990
    20  C   -0.025574
    21  C    0.054787
    22  C    0.128939
 Sum of Mulliken charges with hydrogens summed into heavy atoms =   0.00000
 Electronic spatial extent (au):  <R**2>=          10057.8647
 Charge=              0.0000 electrons
 Dipole moment (field-independent basis, Debye):
    X=             -0.9186    Y=             -1.1855    Z=              2.5443  Tot=              2.9534
 Quadrupole moment (field-independent basis, Debye-Ang):
   XX=           -133.2148   YY=           -125.1256   ZZ=           -120.3023
   XY=              7.2223   XZ=             -6.0987   YZ=             -2.0642
 Traceless Quadrupole moment (field-independent basis, Debye-Ang):
   XX=             -7.0006   YY=              1.0886   ZZ=              5.9120
   XY=              7.2223   XZ=             -6.0987   YZ=             -2.0642
 Octapole moment (field-independent basis, Debye-Ang**2):
  XXX=            -53.9935  YYY=              0.5927  ZZZ=             46.1073  XYY=            -13.2734
  XXY=            -20.6306  XXZ=              4.0171  XZZ=             16.6259  YZZ=            -19.4549
  YYZ=             45.1814  XYZ=             -9.5184
 Hexadecapole moment (field-independent basis, Debye-Ang**3):
 XXXX=          -1618.3134 YYYY=          -1099.9315 ZZZZ=         -10466.1997 XXXY=           -131.0930
 XXXZ=           -450.1736 YYYX=           -140.5058 YYYZ=            283.5080 ZZZX=           -361.0938
 ZZZY=            473.7318 XXYY=           -409.2386 XXZZ=          -2098.2784 YYZZ=          -2066.2375
 XXYZ=             53.2217 YYXZ=           -124.5422 ZZXY=              6.4529
 N-N= 1.708049453841D+03 E-N=-5.611543582722D+03  KE= 9.398243671921D+02
 1\1\GINC-A869AA4EB327\FOpt\RB3LYP\6-311G\C19H23N1O2\ROOT\09-Oct-2022\0
 \\# opt b3lyp/6-311g nosymm\\Title Card Required\\0,1\O,-2.5508452286,
 -1.992240605,-0.2411414183\C,-2.0110084583,-0.9679197172,0.653395771\C
 ,-1.0749881299,-1.6570883003,1.6569693047\O,-0.7616827412,-0.709154216
 6,2.7065369964\C,0.2537510231,-1.1504366473,3.678834334\C,0.0176345144
 ,-0.2974665558,4.9371010463\C,1.3221792288,-0.0837589108,5.723629658\C
 ,2.3509419176,0.6939462314,4.8564163356\N,2.222199062,0.3925365254,3.4
 13331017\C,1.6849089004,-0.9400785034,3.1274256675\C,-1.3191105282,0.0
 771365485,-0.1973268748\C,-1.0106933406,1.3311239602,0.3492994178\C,-0
 .3439704556,2.2822687711,-0.4245660003\C,0.0169180376,1.9956420689,-1.
 7418117226\C,-0.2861249692,0.7458045706,-2.3087556418\C,0.0887942887,0
 .4311094497,-3.7137268108\C,-0.7773098311,-0.3017676184,-4.5460815879\
 C,-0.4258084348,-0.5978649205,-5.8638107353\C,0.7993714244,-0.16745645
 74,-6.3802061607\C,1.6704603345,0.5608782471,-5.5657358905\C,1.3195519
 172,0.8557986394,-4.2474005879\C,-0.9575722456,-0.2039300719,-1.518031
 4043\H,-3.1541466598,-2.579055456,0.2452913586\H,-2.8215540357,-0.4998
 647889,1.2205162249\H,-1.5849825807,-2.5277931713,2.0911194606\H,-0.17
 85174915,-2.0027258812,1.1355208693\H,0.0851142452,-2.215464173,3.8862
 300918\H,-0.7575407733,-0.7482341785,5.5580472287\H,-0.3683755157,0.66
 83052909,4.6012545977\H,1.7360781699,-1.0534691267,6.0173025315\H,1.12
 4837315,0.4591676898,6.6506243336\H,3.3664088108,0.4637443527,5.193520
 8463\H,2.2102636177,1.7689154671,4.9885654408\H,1.7452822006,1.1162016
 183,2.8919393558\H,2.3540238492,-1.6830017324,3.5719656645\H,1.7014193
 401,-1.106725378,2.0503089958\H,-1.2854532354,1.5502305418,1.371109324
 1\H,-0.118230673,3.2545628819,-0.0058688231\H,0.5069274978,2.751120062
 8,-2.3413626936\H,-1.7374413472,-0.6202766623,-4.1630422006\H,-1.11055
 53605,-1.1570552589,-6.4880594957\H,1.0717553882,-0.3970256587,-7.4018
 128314\H,2.6257124058,0.8910418579,-5.9528380038\H,2.0133590324,1.3970
 802129,-3.6179586349\H,-1.2009804855,-1.1737609976,-1.9237183541\\Vers
 ion=EM64L-G09RevA.01\HF=-943.0176236\RMSD=3.775e-09\RMSF=1.256e-05\Dip
 ole=-0.3614122,-0.4664309,1.0009948\Quadrupole=-5.2047398,0.809345,4.3
 953948,5.3696316,-4.5342094,-1.5346791\PG=C01 [X(C19H23N1O2)]\\@


 SCIENCE AT ITS BEST PROVIDES US WITH BETTER QUESTIONS, 
 NOT ABSOLUTE ANSWERS

                                    -- NORMAN COUSINS, 1976
 Job cpu time:  0 days  5 hours 22 minutes 56.6 seconds.
 File lengths (MBytes):  RWF=     87 Int=      0 D2E=      0 Chk=     10 Scr=      1
 Normal termination of Gaussian 09 at Sun Oct  9 18:02:30 2022.
